 Entering Gaussian System, Link 0=g16
 Initial command:
 /apps/gaussian/g16c01/g16/l1.exe "/jobfs/89253669.gadi-pbs/Gau-2361423.inp" -scrdir="/jobfs/89253669.gadi-pbs/"
 Entering Link 1 = /apps/gaussian/g16c01/g16/l1.exe PID=   2361424.
  
 Copyright (c) 1988-2019, Gaussian, Inc.  All Rights Reserved.
  
 This is part of the Gaussian(R) 16 program.  It is based on
 the Gaussian(R) 09 system (copyright 2009, Gaussian, Inc.),
 the Gaussian(R) 03 system (copyright 2003, Gaussian, Inc.),
 the Gaussian(R) 98 system (copyright 1998, Gaussian, Inc.),
 the Gaussian(R) 94 system (copyright 1995, Gaussian, Inc.),
 the Gaussian 92(TM) system (copyright 1992, Gaussian, Inc.),
 the Gaussian 90(TM) system (copyright 1990, Gaussian, Inc.),
 the Gaussian 88(TM) system (copyright 1988, Gaussian, Inc.),
 the Gaussian 86(TM) system (copyright 1986, Carnegie Mellon
 University), and the Gaussian 82(TM) system (copyright 1983,
 Carnegie Mellon University). Gaussian is a federally registered
 trademark of Gaussian, Inc.
  
 This software contains proprietary and confidential information,
 including trade secrets, belonging to Gaussian, Inc.
  
 This software is provided under written license and may be
 used, copied, transmitted, or stored only in accord with that
 written license.
  
 The following legend is applicable only to US Government
 contracts under FAR:
  
                    RESTRICTED RIGHTS LEGEND
  
 Use, reproduction and disclosure by the US Government is
 subject to restrictions as set forth in subparagraphs (a)
 and (c) of the Commercial Computer Software - Restricted
 Rights clause in FAR 52.227-19.
  
 Gaussian, Inc.
 340 Quinnipiac St., Bldg. 40, Wallingford CT 06492
  
  
 ---------------------------------------------------------------
 Warning -- This program may not be used in any manner that
 competes with the business of Gaussian, Inc. or will provide
 assistance to any competitor of Gaussian, Inc.  The licensee
 of this program is prohibited from giving any competitor of
 Gaussian, Inc. access to this program.  By using this program,
 the user acknowledges that Gaussian, Inc. is engaged in the
 business of creating and licensing software in the field of
 computational chemistry and represents and warrants to the
 licensee that it is not a competitor of Gaussian, Inc. and that
 it will not use this program in any manner prohibited above.
 ---------------------------------------------------------------
  

 Cite this work as:
 Gaussian 16, Revision C.01,
 M. J. Frisch, G. W. Trucks, H. B. Schlegel, G. E. Scuseria, 
 M. A. Robb, J. R. Cheeseman, G. Scalmani, V. Barone, 
 G. A. Petersson, H. Nakatsuji, X. Li, M. Caricato, A. V. Marenich, 
 J. Bloino, B. G. Janesko, R. Gomperts, B. Mennucci, H. P. Hratchian, 
 J. V. Ortiz, A. F. Izmaylov, J. L. Sonnenberg, D. Williams-Young, 
 F. Ding, F. Lipparini, F. Egidi, J. Goings, B. Peng, A. Petrone, 
 T. Henderson, D. Ranasinghe, V. G. Zakrzewski, J. Gao, N. Rega, 
 G. Zheng, W. Liang, M. Hada, M. Ehara, K. Toyota, R. Fukuda, 
 J. Hasegawa, M. Ishida, T. Nakajima, Y. Honda, O. Kitao, H. Nakai, 
 T. Vreven, K. Throssell, J. A. Montgomery, Jr., J. E. Peralta, 
 F. Ogliaro, M. J. Bearpark, J. J. Heyd, E. N. Brothers, K. N. Kudin, 
 V. N. Staroverov, T. A. Keith, R. Kobayashi, J. Normand, 
 K. Raghavachari, A. P. Rendell, J. C. Burant, S. S. Iyengar, 
 J. Tomasi, M. Cossi, J. M. Millam, M. Klene, C. Adamo, R. Cammi, 
 J. W. Ochterski, R. L. Martin, K. Morokuma, O. Farkas, 
 J. B. Foresman, and D. J. Fox, Gaussian, Inc., Wallingford CT, 2019.
 
 ******************************************
 Gaussian 16:  ES64L-G16RevC.01  3-Jul-2019
                29-Jun-2023 
 ******************************************
 %nprocshared=8
 Will use up to    8 processors via shared memory.
 %mem=4000MB
 %chk=ZINC000034075380.chk
 ----------------------------------------------------------------------
 # opt=calcfc freq 6-311+g(d,p) scrf=(cpcm,solvent=water) m062x int(gri
 d=ultrafine)
 ----------------------------------------------------------------------
 1/10=4,18=20,19=15,26=6,38=1/1,3;
 2/9=110,12=2,17=6,18=5,40=1/2;
 3/5=4,6=6,7=111,11=2,25=1,30=1,70=2101,71=2,72=1,74=-55,75=-5,140=1/1,2,3;
 4//1;
 5/5=2,38=5,53=1/2;
 8/6=4,10=90,11=11/1;
 11/6=1,8=1,9=11,15=111,16=1/1,2,10;
 10/6=1,13=1/2;
 6/7=2,8=2,9=2,10=2,28=1/1;
 7/10=1,25=1/1,2,3,16;
 1/10=4,18=20,19=15,26=6/3(2);
 2/9=110/2;
 99//99;
 2/9=110/2;
 3/5=4,6=6,7=111,11=2,25=1,30=1,70=2105,71=1,72=1,74=-55,75=-5/1,2,3;
 4/5=5,16=3,69=1/1;
 5/5=2,38=5,53=1/2;
 7//1,2,3,16;
 1/18=20,19=15,26=6/3(-5);
 2/9=110/2;
 6/7=2,8=2,9=2,10=2,19=2,28=1/1;
 99/9=1/99;
 --------------------
 ZINC000034075380.mol
 --------------------
 Symbolic Z-matrix:
 Charge =  0 Multiplicity = 1
 O                    -2.7995    0.4822    0.1515 
 N                    -1.608     0.395     0.2223 
 O                    -0.8622    1.493     0.5186 
 O                    -0.9998   -0.8022    0.0065 
 C                     0.3037   -0.583    -0.5392 
 C                     1.1417    0.2474    0.4507 
 C                     2.5454    0.4834   -0.1369 
 O                     3.185    -0.7754   -0.3638 
 H                     0.2184   -0.0542   -1.4654 
 H                     0.7823   -1.5249   -0.709 
 H                     1.227    -0.2814    1.377 
 H                     0.6631    1.1892    0.6205 
 H                     3.1276    1.0604    0.5509 
 H                     2.4601    1.0122   -1.0632 
 H                     4.0601   -0.6282   -0.7301 
 

 GradGradGradGradGradGradGradGradGradGradGradGradGradGradGradGradGradGrad
 Berny optimization.
 Initialization pass.
                           ----------------------------
                           !    Initial Parameters    !
                           ! (Angstroms and Degrees)  !
 --------------------------                            --------------------------
 ! Name  Definition              Value          Derivative Info.                !
 --------------------------------------------------------------------------------
 ! R1    R(1,2)                  1.1968         calculate D2E/DX2 analytically  !
 ! R2    R(2,3)                  1.36           calculate D2E/DX2 analytically  !
 ! R3    R(2,4)                  1.3601         calculate D2E/DX2 analytically  !
 ! R4    R(4,5)                  1.43           calculate D2E/DX2 analytically  !
 ! R5    R(5,6)                  1.54           calculate D2E/DX2 analytically  !
 ! R6    R(5,9)                  1.0699         calculate D2E/DX2 analytically  !
 ! R7    R(5,10)                 1.0701         calculate D2E/DX2 analytically  !
 ! R8    R(6,7)                  1.5399         calculate D2E/DX2 analytically  !
 ! R9    R(6,11)                 1.07           calculate D2E/DX2 analytically  !
 ! R10   R(6,12)                 1.07           calculate D2E/DX2 analytically  !
 ! R11   R(7,8)                  1.4301         calculate D2E/DX2 analytically  !
 ! R12   R(7,13)                 1.07           calculate D2E/DX2 analytically  !
 ! R13   R(7,14)                 1.07           calculate D2E/DX2 analytically  !
 ! R14   R(8,15)                 0.96           calculate D2E/DX2 analytically  !
 ! A1    A(1,2,3)              120.0015         calculate D2E/DX2 analytically  !
 ! A2    A(1,2,4)              119.9975         calculate D2E/DX2 analytically  !
 ! A3    A(3,2,4)              120.001          calculate D2E/DX2 analytically  !
 ! A4    A(2,4,5)              109.4656         calculate D2E/DX2 analytically  !
 ! A5    A(4,5,6)              109.4733         calculate D2E/DX2 analytically  !
 ! A6    A(4,5,9)              109.477          calculate D2E/DX2 analytically  !
 ! A7    A(4,5,10)             109.4702         calculate D2E/DX2 analytically  !
 ! A8    A(6,5,9)              109.47           calculate D2E/DX2 analytically  !
 ! A9    A(6,5,10)             109.4658         calculate D2E/DX2 analytically  !
 ! A10   A(9,5,10)             109.471          calculate D2E/DX2 analytically  !
 ! A11   A(5,6,7)              109.4738         calculate D2E/DX2 analytically  !
 ! A12   A(5,6,11)             109.472          calculate D2E/DX2 analytically  !
 ! A13   A(5,6,12)             109.4644         calculate D2E/DX2 analytically  !
 ! A14   A(7,6,11)             109.4752         calculate D2E/DX2 analytically  !
 ! A15   A(7,6,12)             109.4745         calculate D2E/DX2 analytically  !
 ! A16   A(11,6,12)            109.4673         calculate D2E/DX2 analytically  !
 ! A17   A(6,7,8)              109.4708         calculate D2E/DX2 analytically  !
 ! A18   A(6,7,13)             109.4714         calculate D2E/DX2 analytically  !
 ! A19   A(6,7,14)             109.4752         calculate D2E/DX2 analytically  !
 ! A20   A(8,7,13)             109.4687         calculate D2E/DX2 analytically  !
 ! A21   A(8,7,14)             109.4697         calculate D2E/DX2 analytically  !
 ! A22   A(13,7,14)            109.4715         calculate D2E/DX2 analytically  !
 ! A23   A(7,8,15)             109.4665         calculate D2E/DX2 analytically  !
 ! D1    D(1,2,3,4)            179.9968         calculate D2E/DX2 analytically  !
 ! D2    D(1,2,4,5)            150.0004         calculate D2E/DX2 analytically  !
 ! D3    D(3,2,4,5)            -30.0028         calculate D2E/DX2 analytically  !
 ! D4    D(2,4,5,6)             60.0049         calculate D2E/DX2 analytically  !
 ! D5    D(2,4,5,9)            -59.9985         calculate D2E/DX2 analytically  !
 ! D6    D(2,4,5,10)           179.9989         calculate D2E/DX2 analytically  !
 ! D7    D(4,5,6,7)            179.9975         calculate D2E/DX2 analytically  !
 ! D8    D(4,5,6,11)            59.9905         calculate D2E/DX2 analytically  !
 ! D9    D(4,5,6,12)           -60.0011         calculate D2E/DX2 analytically  !
 ! D10   D(9,5,6,7)            -59.9949         calculate D2E/DX2 analytically  !
 ! D11   D(9,5,6,11)           179.9981         calculate D2E/DX2 analytically  !
 ! D12   D(9,5,6,12)            60.0066         calculate D2E/DX2 analytically  !
 ! D13   D(10,5,6,7)            60.0008         calculate D2E/DX2 analytically  !
 ! D14   D(10,5,6,11)          -60.0062         calculate D2E/DX2 analytically  !
 ! D15   D(10,5,6,12)         -179.9977         calculate D2E/DX2 analytically  !
 ! D16   D(5,6,7,8)            -60.0054         calculate D2E/DX2 analytically  !
 ! D17   D(5,6,7,13)           179.9978         calculate D2E/DX2 analytically  !
 ! D18   D(5,6,7,14)            59.995          calculate D2E/DX2 analytically  !
 ! D19   D(11,6,7,8)            59.9997         calculate D2E/DX2 analytically  !
 ! D20   D(11,6,7,13)          -59.9971         calculate D2E/DX2 analytically  !
 ! D21   D(11,6,7,14)          180.0            calculate D2E/DX2 analytically  !
 ! D22   D(12,6,7,8)           179.9994         calculate D2E/DX2 analytically  !
 ! D23   D(12,6,7,13)           60.0026         calculate D2E/DX2 analytically  !
 ! D24   D(12,6,7,14)          -60.0003         calculate D2E/DX2 analytically  !
 ! D25   D(6,7,8,15)          -179.9985         calculate D2E/DX2 analytically  !
 ! D26   D(13,7,8,15)          -60.0            calculate D2E/DX2 analytically  !
 ! D27   D(14,7,8,15)           59.9978         calculate D2E/DX2 analytically  !
 --------------------------------------------------------------------------------
 Trust Radius=3.00D-01 FncErr=5.00D-06 GrdErr=5.00D-06 EigMax=2.50D+02 EigMin=1.00D-04
 Number of steps in this run=     74 maximum allowed number of steps=    100.
 GradGradGradGradGradGradGradGradGradGradGradGradGradGradGradGradGradGrad

                          Input orientation:                          
 ---------------------------------------------------------------------
 Center     Atomic      Atomic             Coordinates (Angstroms)
 Number     Number       Type             X           Y           Z
 ---------------------------------------------------------------------
      1          8           0       -2.799500    0.482200    0.151500
      2          7           0       -1.608000    0.395000    0.222300
      3          8           0       -0.862200    1.493000    0.518600
      4          8           0       -0.999800   -0.802200    0.006500
      5          6           0        0.303700   -0.583000   -0.539200
      6          6           0        1.141700    0.247400    0.450700
      7          6           0        2.545400    0.483400   -0.136900
      8          8           0        3.185000   -0.775400   -0.363800
      9          1           0        0.218400   -0.054200   -1.465400
     10          1           0        0.782300   -1.524900   -0.709000
     11          1           0        1.227000   -0.281400    1.377000
     12          1           0        0.663100    1.189200    0.620500
     13          1           0        3.127600    1.060400    0.550900
     14          1           0        2.460100    1.012200   -1.063200
     15          1           0        4.060100   -0.628200   -0.730100
 ---------------------------------------------------------------------
                    Distance matrix (angstroms):
                    1          2          3          4          5
     1  O    0.000000
     2  N    1.196783   0.000000
     3  O    2.215764   1.360006   0.000000
     4  O    2.215768   1.360061   2.355658   0.000000
     5  C    3.352845   2.278369   2.605387   1.430017   0.000000
     6  C    3.959509   2.763115   2.360454   2.425901   1.540036
     7  C    5.352675   4.169841   3.613960   3.773827   2.514811
     8  O    6.136883   4.968521   4.722721   4.201237   2.893039
     9  H    3.465517   2.527024   2.738207   2.051830   1.069931
    10  H    4.195021   3.204196   3.649535   2.051857   1.070077
    11  H    4.277574   3.134976   2.872299   2.666110   2.148317
    12  H    3.565026   2.438691   1.558595   2.666066   2.148200
    13  H    5.968614   4.793396   4.013314   4.560820   3.444342
    14  H    5.424001   4.310787   3.710921   4.050582   2.733002
    15  H    7.004593   5.837924   5.503433   5.116194   3.761519
                    6          7          8          9         10
     6  C    0.000000
     7  C    1.539917   0.000000
     8  O    2.425820   1.430087   0.000000
     9  H    2.148228   2.732921   3.245669   0.000000
    10  H    2.148283   2.732963   2.540449   1.747307   0.000000
    11  H    1.070017   2.148253   2.666118   3.024588   2.468896
    12  H    1.069989   2.148223   3.344918   2.468761   3.024586
    13  H    2.148210   1.070026   2.051861   3.710963   3.711005
    14  H    2.148253   1.070017   2.051866   2.514795   3.062245
    15  H    3.267724   1.970243   0.960023   3.953328   3.398307
                   11         12         13         14         15
    11  H    0.000000
    12  H    1.747266   0.000000
    13  H    2.468836   2.468845   0.000000
    14  H    3.024651   2.468883   1.747340   0.000000
    15  H    3.547759   4.082484   2.315575   2.315571   0.000000
 Stoichiometry    C3H7NO4
 Framework group  C1[X(C3H7NO4)]
 Deg. of freedom    39
 Full point group                 C1      NOp   1
 Largest Abelian subgroup         C1      NOp   1
 Largest concise Abelian subgroup C1      NOp   1
                         Standard orientation:                         
 ---------------------------------------------------------------------
 Center     Atomic      Atomic             Coordinates (Angstroms)
 Number     Number       Type             X           Y           Z
 ---------------------------------------------------------------------
      1          8           0        3.029379   -0.107850    0.123707
      2          7           0        1.849222    0.028552   -0.020903
      3          8           0        1.294202    1.268130    0.049906
      4          8           0        1.063121   -1.056105   -0.256124
      5          6           0       -0.242582   -0.823293    0.278560
      6          6           0       -0.860768    0.414873   -0.397089
      7          6           0       -2.266843    0.665551    0.178634
      8          8           0       -3.093495   -0.474897   -0.068697
      9          1           0       -0.171703   -0.656099    1.332967
     10          1           0       -0.861146   -1.676641    0.093513
     11          1           0       -0.931638    0.247712   -1.451590
     12          1           0       -0.242217    1.268128   -0.212077
     13          1           0       -2.696309    1.525863   -0.290808
     14          1           0       -2.195973    0.832711    1.233135
     15          1           0       -3.970064   -0.318544    0.290224
 ---------------------------------------------------------------------
 Rotational constants (GHZ):           6.2231411           1.0048249           0.8966150
 Standard basis: 6-311+G(d,p) (5D, 7F)
 There are   226 symmetry adapted cartesian basis functions of A   symmetry.
 There are   218 symmetry adapted basis functions of A   symmetry.
   218 basis functions,   344 primitive gaussians,   226 cartesian basis functions
    32 alpha electrons       32 beta electrons
       nuclear repulsion energy       403.7736741658 Hartrees.
 NAtoms=   15 NActive=   15 NUniq=   15 SFac= 1.00D+00 NAtFMM=   60 NAOKFM=F Big=F
 Integral buffers will be    131072 words long.
 Raffenetti 2 integral format.
 Two-electron integral symmetry is turned on.
 Force inversion solution in PCM.
 ------------------------------------------------------------------------------
 Polarizable Continuum Model (PCM)
 =================================
 Model                : C-PCM.
 Atomic radii         : UFF (Universal Force Field).
 Polarization charges : Total charges.
 Charge compensation  : None.
 Solution method      : Matrix inversion.
 Cavity type          : Scaled VdW (van der Waals Surface) (Alpha=1.100).
 Cavity algorithm     : GePol (No added spheres)
                        Default sphere list used, NSphG=   15.
                        Lebedev-Laikov grids with approx.  5.0 points / Ang**2.
                        Smoothing algorithm: York/Karplus (Gamma=1.0000).
                        Polarization charges: spherical gaussians, with
                                              point-specific exponents (IZeta= 3).
                        Self-potential: point-specific (ISelfS= 7).
                        Self-field    : sphere-specific E.n sum rule (ISelfD= 2).
 1st derivatives      : Analytical E(r).r(x)/FMM algorithm (CHGder, D1EAlg=3).
                        Cavity 1st derivative terms included.
 2nd derivatives      : Analytical E(r).r(xy)/FMM algorithm (CHGder, D2EAlg=3).
                        Cavity 2nd derivative terms included.
 Solvent              : Water, Eps=  78.355300 Eps(inf)=   1.777849
 ------------------------------------------------------------------------------
 Spheres list:
 ISph  on   Nord     Re0    Alpha      Xe            Ye            Ze
    1   O      1    1.7500  1.100      3.029379     -0.107850      0.123707
    2   N      2    1.8300  1.100      1.849222      0.028552     -0.020903
    3   O      3    1.7500  1.100      1.294202      1.268130      0.049906
    4   O      4    1.7500  1.100      1.063121     -1.056105     -0.256124
    5   C      5    1.9255  1.100     -0.242582     -0.823293      0.278560
    6   C      6    1.9255  1.100     -0.860768      0.414873     -0.397089
    7   C      7    1.9255  1.100     -2.266843      0.665551      0.178634
    8   O      8    1.7500  1.100     -3.093495     -0.474897     -0.068697
    9   H      9    1.4430  1.100     -0.171703     -0.656099      1.332967
   10   H     10    1.4430  1.100     -0.861146     -1.676641      0.093513
   11   H     11    1.4430  1.100     -0.931638      0.247712     -1.451590
   12   H     12    1.4430  1.100     -0.242217      1.268128     -0.212077
   13   H     13    1.4430  1.100     -2.696309      1.525863     -0.290808
   14   H     14    1.4430  1.100     -2.195973      0.832711      1.233135
   15   H     15    1.4430  1.100     -3.970064     -0.318544      0.290224
 ------------------------------------------------------------------------------
 One-electron integrals computed using PRISM.
 NBasis=   218 RedAO= T EigKep=  3.52D-05  NBF=   218
 NBsUse=   218 1.00D-06 EigRej= -1.00D+00 NBFU=   218
 ExpMin= 4.38D-02 ExpMax= 8.59D+03 ExpMxC= 1.30D+03 IAcc=3 IRadAn=         5 AccDes= 0.00D+00
 Harris functional with IExCor= 1009 and IRadAn=       5 diagonalized for initial guess.
 HarFok:  IExCor= 1009 AccDes= 0.00D+00 IRadAn=         5 IDoV= 1 UseB2=F ITyADJ=14
 ICtDFT=  3500011 ScaDFX=  1.000000  1.000000  1.000000  1.000000
 FoFCou: FMM=F IPFlag=           0 FMFlag=      100000 FMFlg1=           0
         NFxFlg=           0 DoJE=T BraDBF=F KetDBF=T FulRan=T
         wScrn=  0.000000 ICntrl=       500 IOpCl=  0 I1Cent=   200000004 NGrid=           0
         NMat0=    1 NMatS0=      1 NMatT0=    0 NMatD0=    1 NMtDS0=    0 NMtDT0=    0
 Petite list used in FoFCou.
 Requested convergence on RMS density matrix=1.00D-08 within 128 cycles.
 Requested convergence on MAX density matrix=1.00D-06.
 Requested convergence on             energy=1.00D-06.
 No special actions if energy rises.
 Inv3:  Mode=1 IEnd=     5148300.
 Iteration    1 A*A^-1 deviation from unit magnitude is 3.44D-15 for   1308.
 Iteration    1 A*A^-1 deviation from orthogonality  is 1.58D-15 for   1295   1017.
 Iteration    1 A^-1*A deviation from unit magnitude is 3.66D-15 for   1308.
 Iteration    1 A^-1*A deviation from orthogonality  is 1.43D-15 for    298     99.
 Error on total polarization charges =  0.00914
 SCF Done:  E(RM062X) =  -473.922997303     A.U. after   14 cycles
            NFock= 14  Conv=0.94D-08     -V/T= 2.0031
 DoSCS=F DFT=T ScalE2(SS,OS)=  1.000000  1.000000
 Range of M.O.s used for correlation:     1   218
 NBasis=   218 NAE=    32 NBE=    32 NFC=     0 NFV=     0
 NROrb=    218 NOA=    32 NOB=    32 NVA=   186 NVB=   186

 **** Warning!!: The largest alpha MO coefficient is  0.45119383D+02

 Symmetrizing basis deriv contribution to polar:
 IMax=3 JMax=2 DiffMx= 0.00D+00
 G2DrvN: will do    16 centers at a time, making    1 passes.
 Calling FoFCou, ICntrl=  3107 FMM=F I1Cent=   0 AccDes= 0.00D+00.
 NEqPCM:  Using equilibrium solvation (IEInf=0, Eps=  78.3553, EpsInf=   1.7778)
 G2PCM: DoFxE=T DoFxN=T DoGrad=T DoDP/DQ/DG/TGxP=FFFF NFrqRd=   0 IEInf=0 SqF1=F DoCFld=F IF1Alg=4.
 End of G2Drv F.D. properties file   721 does not exist.
 End of G2Drv F.D. properties file   722 does not exist.
 End of G2Drv F.D. properties file   788 does not exist.
          IDoAtm=111111111111111
 NEqPCM:  Using equilibrium solvation (IEInf=0, Eps=  78.3553, EpsInf=   1.7778)
          Differentiating once with respect to nuclear coordinates.
 Keep R1 ints in memory in canonical form, NReq=293362613.
          There are    48 degrees of freedom in the 1st order CPHF.  IDoFFX=6 NUNeed=     0.
     42 vectors produced by pass  0 Test12= 1.24D-14 2.08D-09 XBig12= 1.54D-01 9.53D-02.
 AX will form    42 AO Fock derivatives at one time.
     42 vectors produced by pass  1 Test12= 1.24D-14 2.08D-09 XBig12= 3.71D-02 7.36D-02.
     42 vectors produced by pass  2 Test12= 1.24D-14 2.08D-09 XBig12= 3.10D-03 9.50D-03.
     42 vectors produced by pass  3 Test12= 1.24D-14 2.08D-09 XBig12= 5.86D-05 1.27D-03.
     42 vectors produced by pass  4 Test12= 1.24D-14 2.08D-09 XBig12= 7.59D-07 1.15D-04.
     42 vectors produced by pass  5 Test12= 1.24D-14 2.08D-09 XBig12= 4.43D-09 8.86D-06.
     29 vectors produced by pass  6 Test12= 1.24D-14 2.08D-09 XBig12= 1.69D-11 4.63D-07.
      9 vectors produced by pass  7 Test12= 1.24D-14 2.08D-09 XBig12= 5.99D-14 2.03D-08.
 InvSVY:  IOpt=1 It=  1 EMax= 2.22D-15
 Solved reduced A of dimension   290 with    42 vectors.
 End of Minotr F.D. properties file   721 does not exist.
 End of Minotr F.D. properties file   722 does not exist.
 End of Minotr F.D. properties file   788 does not exist.

 **********************************************************************

            Population analysis using the SCF Density.

 **********************************************************************

 Orbital symmetries:
       Occupied  (A) (A) (A) (A) (A) (A) (A) (A) (A) (A) (A) (A)
                 (A) (A) (A) (A) (A) (A) (A) (A) (A) (A) (A) (A)
                 (A) (A) (A) (A) (A) (A) (A) (A)
       Virtual   (A) (A) (A) (A) (A) (A) (A) (A) (A) (A) (A) (A)
                 (A) (A) (A) (A) (A) (A) (A) (A) (A) (A) (A) (A)
                 (A) (A) (A) (A) (A) (A) (A) (A) (A) (A) (A) (A)
                 (A) (A) (A) (A) (A) (A) (A) (A) (A) (A) (A) (A)
                 (A) (A) (A) (A) (A) (A) (A) (A) (A) (A) (A) (A)
                 (A) (A) (A) (A) (A) (A) (A) (A) (A) (A) (A) (A)
                 (A) (A) (A) (A) (A) (A) (A) (A) (A) (A) (A) (A)
                 (A) (A) (A) (A) (A) (A) (A) (A) (A) (A) (A) (A)
                 (A) (A) (A) (A) (A) (A) (A) (A) (A) (A) (A) (A)
                 (A) (A) (A) (A) (A) (A) (A) (A) (A) (A) (A) (A)
                 (A) (A) (A) (A) (A) (A) (A) (A) (A) (A) (A) (A)
                 (A) (A) (A) (A) (A) (A) (A) (A) (A) (A) (A) (A)
                 (A) (A) (A) (A) (A) (A) (A) (A) (A) (A) (A) (A)
                 (A) (A) (A) (A) (A) (A) (A) (A) (A) (A) (A) (A)
                 (A) (A) (A) (A) (A) (A) (A) (A) (A) (A) (A) (A)
                 (A) (A) (A) (A) (A) (A)
 The electronic state is 1-A.
 Alpha  occ. eigenvalues --  -19.75760 -19.72955 -19.67604 -19.62458 -15.08268
 Alpha  occ. eigenvalues --  -10.61201 -10.57985 -10.51901  -1.42650  -1.25838
 Alpha  occ. eigenvalues --   -1.16505  -1.14616  -0.91514  -0.83804  -0.75542
 Alpha  occ. eigenvalues --   -0.72171  -0.68663  -0.66244  -0.64893  -0.60642
 Alpha  occ. eigenvalues --   -0.56165  -0.54271  -0.53640  -0.48183  -0.48086
 Alpha  occ. eigenvalues --   -0.47040  -0.44470  -0.41447  -0.40447  -0.39366
 Alpha  occ. eigenvalues --   -0.35704  -0.35106
 Alpha virt. eigenvalues --   -0.07077   0.01622   0.02296   0.03253   0.03862
 Alpha virt. eigenvalues --    0.06026   0.06658   0.07072   0.08132   0.08648
 Alpha virt. eigenvalues --    0.09941   0.10999   0.11818   0.12096   0.13205
 Alpha virt. eigenvalues --    0.14865   0.16108   0.18062   0.18552   0.19907
 Alpha virt. eigenvalues --    0.20405   0.21682   0.21985   0.22660   0.23898
 Alpha virt. eigenvalues --    0.25096   0.25444   0.25827   0.26348   0.26515
 Alpha virt. eigenvalues --    0.27477   0.28369   0.28693   0.29667   0.30038
 Alpha virt. eigenvalues --    0.30082   0.31291   0.32742   0.33058   0.35216
 Alpha virt. eigenvalues --    0.36361   0.37378   0.38264   0.39621   0.41162
 Alpha virt. eigenvalues --    0.43007   0.46423   0.47530   0.49527   0.50878
 Alpha virt. eigenvalues --    0.54275   0.57354   0.60273   0.62225   0.65846
 Alpha virt. eigenvalues --    0.67715   0.69909   0.73005   0.73598   0.75272
 Alpha virt. eigenvalues --    0.76213   0.78239   0.79974   0.80911   0.88231
 Alpha virt. eigenvalues --    0.92824   0.97840   0.99140   0.99882   1.02067
 Alpha virt. eigenvalues --    1.04146   1.08932   1.10241   1.11219   1.13047
 Alpha virt. eigenvalues --    1.14366   1.15901   1.17247   1.18266   1.20185
 Alpha virt. eigenvalues --    1.21884   1.25277   1.27305   1.30882   1.32836
 Alpha virt. eigenvalues --    1.38787   1.43403   1.46243   1.50236   1.52797
 Alpha virt. eigenvalues --    1.58512   1.58937   1.61640   1.62244   1.62989
 Alpha virt. eigenvalues --    1.66345   1.67932   1.68301   1.69667   1.72742
 Alpha virt. eigenvalues --    1.74653   1.76812   1.77347   1.80079   1.84899
 Alpha virt. eigenvalues --    1.86665   1.88103   1.93024   1.98922   2.03474
 Alpha virt. eigenvalues --    2.05591   2.07546   2.12442   2.15577   2.18939
 Alpha virt. eigenvalues --    2.21497   2.27625   2.30105   2.33982   2.37502
 Alpha virt. eigenvalues --    2.40063   2.52158   2.53463   2.56281   2.59743
 Alpha virt. eigenvalues --    2.59967   2.64512   2.66760   2.69010   2.72138
 Alpha virt. eigenvalues --    2.74980   2.78396   2.81446   2.85352   2.86527
 Alpha virt. eigenvalues --    2.88200   2.90730   2.93366   2.96245   2.97803
 Alpha virt. eigenvalues --    3.02241   3.09096   3.14498   3.18523   3.20113
 Alpha virt. eigenvalues --    3.23035   3.28070   3.32507   3.32622   3.34628
 Alpha virt. eigenvalues --    3.37904   3.38798   3.53540   3.65836   3.73891
 Alpha virt. eigenvalues --    3.82995   3.88957   3.91871   3.92904   3.97340
 Alpha virt. eigenvalues --    4.01963   4.03834   4.21609   4.31353   4.43142
 Alpha virt. eigenvalues --    4.52409   5.06895   5.08462   5.11936   5.13353
 Alpha virt. eigenvalues --    5.15319   5.24459   5.32662   5.48552   5.52703
 Alpha virt. eigenvalues --    5.75904   5.93419   6.14740  23.92046  23.96012
 Alpha virt. eigenvalues --   24.05311  35.31510  49.91567  49.95407  50.02355
 Alpha virt. eigenvalues --   50.02618
          Condensed to atoms (all electrons):
               1          2          3          4          5          6
     1  O    7.948554   0.309383  -0.152792  -0.162538   0.000331  -0.005281
     2  N    0.309383   7.210168   0.141857  -0.186226  -0.130018   0.086955
     3  O   -0.152792   0.141857   8.446630  -0.164889  -0.082738  -0.005186
     4  O   -0.162538  -0.186226  -0.164889   8.284899   0.150230  -0.149038
     5  C    0.000331  -0.130018  -0.082738   0.150230   5.916345  -0.374817
     6  C   -0.005281   0.086955  -0.005186  -0.149038  -0.374817   6.433436
     7  C   -0.004343  -0.044543  -0.033444   0.065119   0.072186  -0.236425
     8  O   -0.000077  -0.000055  -0.002756  -0.001053  -0.008484  -0.089568
     9  H   -0.000140  -0.021507   0.005746  -0.015580   0.394628  -0.030296
    10  H   -0.000934   0.010916  -0.001841  -0.045475   0.417814  -0.003454
    11  H   -0.000159  -0.011831   0.006727   0.010927  -0.078552   0.462251
    12  H   -0.001778   0.021285  -0.084389  -0.003081  -0.023638   0.459146
    13  H    0.000007  -0.000192   0.000480  -0.000176   0.028297  -0.085278
    14  H    0.000003   0.000336   0.000100  -0.000523  -0.026246  -0.030399
    15  H    0.000003  -0.000259   0.000029   0.000379   0.000171  -0.014583
               7          8          9         10         11         12
     1  O   -0.004343  -0.000077  -0.000140  -0.000934  -0.000159  -0.001778
     2  N   -0.044543  -0.000055  -0.021507   0.010916  -0.011831   0.021285
     3  O   -0.033444  -0.002756   0.005746  -0.001841   0.006727  -0.084389
     4  O    0.065119  -0.001053  -0.015580  -0.045475   0.010927  -0.003081
     5  C    0.072186  -0.008484   0.394628   0.417814  -0.078552  -0.023638
     6  C   -0.236425  -0.089568  -0.030296  -0.003454   0.462251   0.459146
     7  C    5.561575   0.120832   0.004641  -0.022555  -0.028549  -0.044385
     8  O    0.120832   8.219872  -0.001185   0.006112  -0.005731   0.011743
     9  H    0.004641  -0.001185   0.450631  -0.022038   0.004758  -0.005860
    10  H   -0.022555   0.006112  -0.022038   0.427097  -0.003540   0.004143
    11  H   -0.028549  -0.005731   0.004758  -0.003540   0.465136  -0.025516
    12  H   -0.044385   0.011743  -0.005860   0.004143  -0.025516   0.458305
    13  H    0.448299  -0.046639  -0.000196  -0.000451  -0.007682  -0.002767
    14  H    0.435161  -0.063854   0.003059   0.000348   0.006644  -0.004073
    15  H    0.034089   0.251408   0.000112  -0.000807   0.000204  -0.000427
              13         14         15
     1  O    0.000007   0.000003   0.000003
     2  N   -0.000192   0.000336  -0.000259
     3  O    0.000480   0.000100   0.000029
     4  O   -0.000176  -0.000523   0.000379
     5  C    0.028297  -0.026246   0.000171
     6  C   -0.085278  -0.030399  -0.014583
     7  C    0.448299   0.435161   0.034089
     8  O   -0.046639  -0.063854   0.251408
     9  H   -0.000196   0.003059   0.000112
    10  H   -0.000451   0.000348  -0.000807
    11  H   -0.007682   0.006644   0.000204
    12  H   -0.002767  -0.004073  -0.000427
    13  H    0.531192  -0.041560  -0.004554
    14  H   -0.041560   0.549068  -0.004843
    15  H   -0.004554  -0.004843   0.446968
 Mulliken charges:
               1
     1  O    0.069761
     2  N   -0.386269
     3  O   -0.073533
     4  O    0.217024
     5  C   -0.255508
     6  C   -0.417461
     7  C   -0.327657
     8  O   -0.390565
     9  H    0.233227
    10  H    0.234666
    11  H    0.204914
    12  H    0.241292
    13  H    0.181220
    14  H    0.176779
    15  H    0.292109
 Sum of Mulliken charges =  -0.00000
 Mulliken charges with hydrogens summed into heavy atoms:
               1
     1  O    0.069761
     2  N   -0.386269
     3  O   -0.073533
     4  O    0.217024
     5  C    0.212385
     6  C    0.028745
     7  C    0.030342
     8  O   -0.098456
 APT charges:
               1
     1  O    0.394242
     2  N   -0.397220
     3  O   -0.230952
     4  O    0.013290
     5  C   -0.548808
     6  C   -0.616244
     7  C   -0.842310
     8  O   -1.190450
     9  H    0.359878
    10  H    0.492765
    11  H    0.377415
    12  H    0.340636
    13  H    0.528433
    14  H    0.330281
    15  H    0.989044
 Sum of APT charges =  -0.00000
 APT charges with hydrogens summed into heavy atoms:
               1
     1  O    0.394242
     2  N   -0.397220
     3  O   -0.230952
     4  O    0.013290
     5  C    0.303835
     6  C    0.101807
     7  C    0.016405
     8  O   -0.201407
 Electronic spatial extent (au):  <R**2>=           1210.4617
 Charge=             -0.0000 electrons
 Dipole moment (field-independent basis, Debye):
    X=             -3.5235    Y=             -0.3591    Z=              1.5159  Tot=              3.8525
 Quadrupole moment (field-independent basis, Debye-Ang):
   XX=            -48.0125   YY=            -50.2861   ZZ=            -45.8354
   XY=             -5.5325   XZ=             -4.3230   YZ=             -1.3263
 Traceless Quadrupole moment (field-independent basis, Debye-Ang):
   XX=              0.0322   YY=             -2.2414   ZZ=              2.2093
   XY=             -5.5325   XZ=             -4.3230   YZ=             -1.3263
 Octapole moment (field-independent basis, Debye-Ang**2):
  XXX=            -56.2581  YYY=             -4.6703  ZZZ=              1.9578  XYY=             -4.1891
  XXY=              8.2310  XXZ=             12.2541  XZZ=              4.2694  YZZ=             -0.6677
  YYZ=              0.1395  XYZ=              0.4614
 Hexadecapole moment (field-independent basis, Debye-Ang**3):
 XXXX=          -1004.4341 YYYY=           -215.9108 ZZZZ=            -74.5864 XXXY=            -23.9039
 XXXZ=            -59.3046 YYYX=             -2.8293 YYYZ=             -0.4029 ZZZX=             -2.9690
 ZZZY=              0.0932 XXYY=           -244.7851 XXZZ=           -203.5274 YYZZ=            -50.7527
 XXYZ=             -6.6664 YYXZ=              0.4026 ZZXY=             -1.0990
 N-N= 4.037736741658D+02 E-N=-1.920187836007D+03  KE= 4.724788916354D+02
  Exact polarizability:       0.000       0.000       0.000       0.000       0.000       0.000
 Approx polarizability:      86.952      -5.002      78.494       1.296       1.876      56.239
 D2PCM: C-PCM CHGder 2nd derivatives, FixD1E=F FixD2E=F DoIter=F DoCFld=F I1PDM=0
 Calling FoFJK, ICntrl=    100127 FMM=F ISym2X=0 I1Cent= 0 IOpClX= 0 NMat=1 NMatS=1 NMatT=0.
 ***** Axes restored to original set *****
 -------------------------------------------------------------------
 Center     Atomic                   Forces (Hartrees/Bohr)
 Number     Number              X              Y              Z
 -------------------------------------------------------------------
      1        8           0.029615881   -0.025853498    0.001048902
      2        7           0.016756363    0.102114256    0.022709529
      3        8          -0.111036134   -0.072693214   -0.027483028
      4        8          -0.024256970    0.015938013   -0.000069075
      5        6           0.030622135    0.025790925    0.023002832
      6        6           0.050272175   -0.015744104   -0.025590706
      7        6          -0.014030418   -0.023373304    0.008693011
      8        8          -0.002765897   -0.003214840    0.000612815
      9        1          -0.005867268    0.005631376   -0.014652378
     10        1          -0.005143070   -0.015733403    0.001038069
     11        1           0.001597546   -0.009440786    0.014461304
     12        1           0.027332528   -0.005021016    0.001406797
     13        1           0.007301439    0.010297398    0.009994097
     14        1          -0.001024432    0.010090346   -0.014591362
     15        1           0.000626120    0.001211851   -0.000580808
 -------------------------------------------------------------------
 Cartesian Forces:  Max     0.111036134 RMS     0.030032878
 FormGI is forming the generalized inverse of G from B-inverse, IUseBI=4.

 GradGradGradGradGradGradGradGradGradGradGradGradGradGradGradGradGradGrad
 Berny optimization.
 Internal  Forces:  Max     0.285980795 RMS     0.051993363
 Search for a local minimum.
 Step number   1 out of a maximum of   74
 All quantities printed in internal units (Hartrees-Bohrs-Radians)
 Mixed Optimization -- RFO/linear search
 Second derivative matrix not updated -- analytic derivatives used.
 ITU=  0
     Eigenvalues ---   -0.23553  -0.05097  -0.00664   0.00246   0.00349
     Eigenvalues ---    0.02672   0.03487   0.04259   0.04990   0.05549
     Eigenvalues ---    0.06153   0.06872   0.07611   0.08801   0.09037
     Eigenvalues ---    0.09193   0.10271   0.12670   0.13415   0.15506
     Eigenvalues ---    0.18813   0.23030   0.23772   0.24949   0.27111
     Eigenvalues ---    0.28871   0.33860   0.35311   0.35602   0.36801
     Eigenvalues ---    0.38222   0.38826   0.39022   0.39257   0.39658
     Eigenvalues ---    0.40170   0.54927   0.77736   3.66410
 RFO step:  Lambda=-2.36466888D-01 EMin=-2.35534061D-01
 I=     1 Eig=   -2.36D-01 Dot1= -7.06D-03
 I=     1 Stepn= -6.00D-01 RXN=   6.00D-01 EDone=F
 I=     2 Eig=   -5.10D-02 Dot1=  4.45D-03
 I=     2 Stepn=  3.00D-01 RXN=   6.71D-01 EDone=F
 I=     3 Eig=   -6.64D-03 Dot1= -1.23D-03
 I=     3 Stepn= -1.50D-01 RXN=   6.87D-01 EDone=F
 Mixed    3 eigenvectors in step.  Raw Step.Grad=  1.27D-02.
 RFO eigenvector is Hessian eigenvector with negative curvature.
 Taking step of  6.00D-01 in eigenvector direction(s).  Step.Grad=  2.82D-02.
 Linear search not attempted -- first point.
 Iteration  1 RMS(Cart)=  0.18329073 RMS(Int)=  0.02792863
 Iteration  2 RMS(Cart)=  0.06260034 RMS(Int)=  0.00296200
 Iteration  3 RMS(Cart)=  0.00335249 RMS(Int)=  0.00167182
 Iteration  4 RMS(Cart)=  0.00001338 RMS(Int)=  0.00167180
 Iteration  5 RMS(Cart)=  0.00000001 RMS(Int)=  0.00167180
 Variable       Old X    -DE/DX   Delta X   Delta X   Delta X     New X
                                 (Linear)    (Quad)   (Total)
    R1        2.26159  -0.03143   0.00000   0.00444   0.00444   2.26603
    R2        2.57004  -0.12557   0.00000  -0.03551  -0.03551   2.53453
    R3        2.57014   0.03146   0.00000  -0.03053  -0.03053   2.53962
    R4        2.70234   0.07661   0.00000   0.02169   0.02169   2.72403
    R5        2.91025   0.01516   0.00000  -0.02310  -0.02310   2.88714
    R6        2.02188   0.01593   0.00000   0.00355   0.00355   2.02542
    R7        2.02215   0.01139   0.00000  -0.00107  -0.00107   2.02108
    R8        2.91002  -0.01136   0.00000   0.00636   0.00636   2.91638
    R9        2.02204   0.01731   0.00000  -0.00206  -0.00206   2.01998
   R10        2.02199  -0.01642   0.00000   0.00662   0.00662   2.02860
   R11        2.70247   0.00080   0.00000  -0.00044  -0.00044   2.70203
   R12        2.02206   0.01595   0.00000  -0.00044  -0.00044   2.02162
   R13        2.02204   0.01770   0.00000   0.00004   0.00004   2.02208
   R14        1.81418   0.00098   0.00000  -0.00010  -0.00010   1.81408
    A1        2.09442  -0.02610   0.00000   0.02243   0.02158   2.11600
    A2        2.09435  -0.07865   0.00000   0.01309   0.01225   2.10660
    A3        2.09441   0.10475   0.00000  -0.03553  -0.03638   2.05803
    A4        1.91054   0.28598   0.00000   0.09912   0.09912   2.00965
    A5        1.91067   0.15218   0.00000   0.15516   0.15425   2.06492
    A6        1.91073  -0.04609   0.00000  -0.01331  -0.00809   1.90264
    A7        1.91062  -0.05955   0.00000  -0.08325  -0.08994   1.82068
    A8        1.91061   0.00495   0.00000  -0.13107  -0.12787   1.78274
    A9        1.91054  -0.06491   0.00000   0.05638   0.05518   1.96572
   A10        1.91063   0.01343   0.00000   0.01609   0.01646   1.92709
   A11        1.91068  -0.01280   0.00000  -0.02937  -0.02954   1.88114
   A12        1.91065  -0.00027   0.00000   0.03536   0.03535   1.94600
   A13        1.91051   0.01980   0.00000  -0.01015  -0.01067   1.89984
   A14        1.91070   0.00270   0.00000  -0.00350  -0.00314   1.90757
   A15        1.91069  -0.00756   0.00000  -0.00648  -0.00695   1.90374
   A16        1.91057  -0.00185   0.00000   0.01414   0.01408   1.92465
   A17        1.91063  -0.00317   0.00000   0.00541   0.00541   1.91604
   A18        1.91064  -0.00042   0.00000  -0.00624  -0.00624   1.90439
   A19        1.91070   0.00091   0.00000  -0.00037  -0.00038   1.91033
   A20        1.91059   0.00251   0.00000  -0.00011  -0.00010   1.91049
   A21        1.91061   0.00115   0.00000   0.00034   0.00034   1.91095
   A22        1.91064  -0.00097   0.00000   0.00097   0.00097   1.91160
   A23        1.91055  -0.00196   0.00000   0.00166   0.00166   1.91221
    D1        3.14154  -0.00050   0.00000  -0.07606  -0.07616   3.06538
    D2        2.61800   0.00800   0.00000  -0.07855  -0.07871   2.53929
    D3       -0.52365   0.00750   0.00000  -0.15460  -0.15444  -0.67809
    D4        1.04728   0.08426   0.00000  -0.31353  -0.30982   0.73747
    D5       -1.04717   0.01321   0.00000  -0.23988  -0.23993  -1.28710
    D6        3.14157   0.06147   0.00000  -0.20044  -0.20410   2.93747
    D7        3.14155  -0.02290   0.00000  -0.05666  -0.05316   3.08839
    D8        1.04703  -0.01820   0.00000  -0.05605  -0.05220   0.99483
    D9       -1.04722  -0.02788   0.00000  -0.08880  -0.08502  -1.13223
   D10       -1.04711   0.01688   0.00000  -0.05821  -0.05971  -1.10682
   D11        3.14156   0.02159   0.00000  -0.05760  -0.05875   3.08281
   D12        1.04731   0.01190   0.00000  -0.09035  -0.09156   0.95575
   D13        1.04721  -0.00339   0.00000  -0.08423  -0.08687   0.96034
   D14       -1.04731   0.00131   0.00000  -0.08362  -0.08591  -1.13321
   D15       -3.14155  -0.00837   0.00000  -0.11636  -0.11872   3.02291
   D16       -1.04729   0.00652   0.00000  -0.02340  -0.02337  -1.07066
   D17        3.14155   0.00565   0.00000  -0.02275  -0.02271   3.11885
   D18        1.04711   0.00655   0.00000  -0.01989  -0.01986   1.02725
   D19        1.04719  -0.00000   0.00000  -0.00022  -0.00017   1.04702
   D20       -1.04715  -0.00088   0.00000   0.00043   0.00049  -1.04666
   D21        3.14159   0.00002   0.00000   0.00329   0.00334  -3.13825
   D22        3.14158  -0.00525   0.00000   0.01099   0.01089  -3.13072
   D23        1.04724  -0.00612   0.00000   0.01164   0.01154   1.05879
   D24       -1.04720  -0.00523   0.00000   0.01449   0.01440  -1.03281
   D25       -3.14157   0.00012   0.00000   0.00465   0.00465  -3.13691
   D26       -1.04720  -0.00080   0.00000   0.00025   0.00025  -1.04695
   D27        1.04716   0.00024   0.00000   0.00158   0.00158   1.04874
         Item               Value     Threshold  Converged?
 Maximum Force            0.285981     0.000450     NO 
 RMS     Force            0.051993     0.000300     NO 
 Maximum Displacement     1.111837     0.001800     NO 
 RMS     Displacement     0.234565     0.001200     NO 
 Predicted change in Energy=-4.506258D-02
 GradGradGradGradGradGradGradGradGradGradGradGradGradGradGradGradGradGrad

                          Input orientation:                          
 ---------------------------------------------------------------------
 Center     Atomic      Atomic             Coordinates (Angstroms)
 Number     Number       Type             X           Y           Z
 ---------------------------------------------------------------------
      1          8           0       -2.888760    0.419349    0.066947
      2          7           0       -1.718195    0.292455    0.294092
      3          8           0       -1.071441    1.140871    1.106959
      4          8           0       -1.035522   -0.759304   -0.189483
      5          6           0        0.332235   -0.486614   -0.553889
      6          6           0        1.170161    0.386758    0.378476
      7          6           0        2.599749    0.455883   -0.198777
      8          8           0        3.167064   -0.855809   -0.244561
      9          1           0        0.344950    0.078752   -1.464369
     10          1           0        0.762378   -1.453437   -0.709087
     11          1           0        1.207521   -0.018868    1.366744
     12          1           0        0.751347    1.374995    0.397585
     13          1           0        3.200243    1.082323    0.426872
     14          1           0        2.565646    0.864782   -1.187020
     15          1           0        4.057524   -0.808639   -0.600091
 ---------------------------------------------------------------------
                    Distance matrix (angstroms):
                    1          2          3          4          5
     1  O    0.000000
     2  N    1.199132   0.000000
     3  O    2.214693   1.341213   0.000000
     4  O    2.211214   1.343907   2.300591   0.000000
     5  C    3.403089   2.351656   2.716142   1.441497   0.000000
     6  C    4.070989   2.891127   2.474703   2.549721   1.527810
     7  C    5.495059   4.349054   3.956234   3.833010   2.481133
     8  O    6.196456   5.047218   4.876296   4.204055   2.875455
     9  H    3.594137   2.719269   3.121857   2.057517   1.071809
    10  H    4.176166   3.194957   3.659419   1.996059   1.069512
    11  H    4.319840   3.131664   2.570243   2.828662   2.161884
    12  H    3.777957   2.698378   1.969919   2.844782   2.132263
    13  H    6.135555   4.983228   4.325880   4.659742   3.413052
    14  H    5.614391   4.568648   4.308940   4.074451   2.686121
    15  H    7.085461   5.947345   5.746381   5.109810   3.739467
                    6          7          8          9         10
     6  C    0.000000
     7  C    1.543282   0.000000
     8  O    2.433058   1.429853   0.000000
     9  H    2.042527   2.613057   3.213357   0.000000
    10  H    2.176097   2.698490   2.521003   1.758493   0.000000
    11  H    1.068926   2.148149   2.671438   2.961209   2.562267
    12  H    1.073491   2.148721   3.350303   2.304838   3.037247
    13  H    2.146483   1.069793   2.051409   3.568844   3.696440
    14  H    2.150968   1.070040   2.051918   2.371973   2.975623
    15  H    3.274665   1.971085   0.959972   3.913776   3.359410
                   11         12         13         14         15
    11  H    0.000000
    12  H    1.757902   0.000000
    13  H    2.463113   2.466497   0.000000
    14  H    3.024410   2.462310   1.747766   0.000000
    15  H    3.551717   4.085881   2.316316   2.317439   0.000000
 Stoichiometry    C3H7NO4
 Framework group  C1[X(C3H7NO4)]
 Deg. of freedom    39
 Full point group                 C1      NOp   1
 Largest Abelian subgroup         C1      NOp   1
 Largest concise Abelian subgroup C1      NOp   1
                         Standard orientation:                         
 ---------------------------------------------------------------------
 Center     Atomic      Atomic             Coordinates (Angstroms)
 Number     Number       Type             X           Y           Z
 ---------------------------------------------------------------------
      1          8           0        3.061262   -0.199836    0.243723
      2          7           0        1.913795    0.006138   -0.037015
      3          8           0        1.462344    1.251125   -0.249266
      4          8           0        1.062252   -1.014369   -0.235826
      5          6           0       -0.292660   -0.774041    0.193556
      6          6           0       -0.917441    0.587315   -0.107375
      7          6           0       -2.380110    0.553516    0.383721
      8          8           0       -3.103977   -0.458202   -0.321208
      9          1           0       -0.330896   -0.807968    1.264145
     10          1           0       -0.850611   -1.584544   -0.225527
     11          1           0       -0.901215    0.802971   -1.154195
     12          1           0       -0.382163    1.342465    0.436324
     13          1           0       -2.832192    1.506221    0.203631
     14          1           0       -2.399152    0.341074    1.432288
     15          1           0       -4.014127   -0.473666   -0.016359
 ---------------------------------------------------------------------
 Rotational constants (GHZ):           6.2498334           0.9542407           0.8620412
 Standard basis: 6-311+G(d,p) (5D, 7F)
 There are   226 symmetry adapted cartesian basis functions of A   symmetry.
 There are   218 symmetry adapted basis functions of A   symmetry.
   218 basis functions,   344 primitive gaussians,   226 cartesian basis functions
    32 alpha electrons       32 beta electrons
       nuclear repulsion energy       399.6342893967 Hartrees.
 NAtoms=   15 NActive=   15 NUniq=   15 SFac= 1.00D+00 NAtFMM=   60 NAOKFM=F Big=F
 Integral buffers will be    131072 words long.
 Raffenetti 2 integral format.
 Two-electron integral symmetry is turned on.
 ------------------------------------------------------------------------------
 Polarizable Continuum Model (PCM)
 =================================
 Model                : C-PCM.
 Atomic radii         : UFF (Universal Force Field).
 Polarization charges : Total charges.
 Charge compensation  : None.
 Solution method      : Matrix inversion.
 Cavity type          : Scaled VdW (van der Waals Surface) (Alpha=1.100).
 Cavity algorithm     : GePol (No added spheres)
                        Default sphere list used, NSphG=   15.
                        Lebedev-Laikov grids with approx.  5.0 points / Ang**2.
                        Smoothing algorithm: York/Karplus (Gamma=1.0000).
                        Polarization charges: spherical gaussians, with
                                              point-specific exponents (IZeta= 3).
                        Self-potential: point-specific (ISelfS= 7).
                        Self-field    : sphere-specific E.n sum rule (ISelfD= 2).
 1st derivatives      : Analytical E(r).r(x)/FMM algorithm (CHGder, D1EAlg=3).
                        Cavity 1st derivative terms included.
 Solvent              : Water, Eps=  78.355300 Eps(inf)=   1.777849
 ------------------------------------------------------------------------------
 Spheres list:
 ISph  on   Nord     Re0    Alpha      Xe            Ye            Ze
    1   O      1    1.7500  1.100      3.061262     -0.199836      0.243723
    2   N      2    1.8300  1.100      1.913795      0.006138     -0.037015
    3   O      3    1.7500  1.100      1.462344      1.251125     -0.249266
    4   O      4    1.7500  1.100      1.062252     -1.014369     -0.235826
    5   C      5    1.9255  1.100     -0.292660     -0.774041      0.193556
    6   C      6    1.9255  1.100     -0.917441      0.587315     -0.107375
    7   C      7    1.9255  1.100     -2.380110      0.553516      0.383721
    8   O      8    1.7500  1.100     -3.103977     -0.458202     -0.321208
    9   H      9    1.4430  1.100     -0.330896     -0.807968      1.264145
   10   H     10    1.4430  1.100     -0.850611     -1.584544     -0.225527
   11   H     11    1.4430  1.100     -0.901215      0.802971     -1.154195
   12   H     12    1.4430  1.100     -0.382163      1.342465      0.436324
   13   H     13    1.4430  1.100     -2.832192      1.506221      0.203631
   14   H     14    1.4430  1.100     -2.399152      0.341074      1.432288
   15   H     15    1.4430  1.100     -4.014127     -0.473666     -0.016359
 ------------------------------------------------------------------------------
 One-electron integrals computed using PRISM.
 NBasis=   218 RedAO= T EigKep=  3.51D-05  NBF=   218
 NBsUse=   218 1.00D-06 EigRej= -1.00D+00 NBFU=   218
 Initial guess from the checkpoint file:  "ZINC000034075380.chk"
 B after Tr=     0.000000    0.000000    0.000000
         Rot=    0.998818   -0.048416    0.002884    0.003164 Ang=  -5.57 deg.
 ExpMin= 4.38D-02 ExpMax= 8.59D+03 ExpMxC= 1.30D+03 IAcc=3 IRadAn=         5 AccDes= 0.00D+00
 Harris functional with IExCor= 1009 and IRadAn=       5 diagonalized for initial guess.
 HarFok:  IExCor= 1009 AccDes= 0.00D+00 IRadAn=         5 IDoV= 1 UseB2=F ITyADJ=14
 ICtDFT=  3500011 ScaDFX=  1.000000  1.000000  1.000000  1.000000
 FoFCou: FMM=F IPFlag=           0 FMFlag=      100000 FMFlg1=           0
         NFxFlg=           0 DoJE=T BraDBF=F KetDBF=T FulRan=T
         wScrn=  0.000000 ICntrl=       500 IOpCl=  0 I1Cent=   200000004 NGrid=           0
         NMat0=    1 NMatS0=      1 NMatT0=    0 NMatD0=    1 NMtDS0=    0 NMtDT0=    0
 Petite list used in FoFCou.
 Requested convergence on RMS density matrix=1.00D-08 within 128 cycles.
 Requested convergence on MAX density matrix=1.00D-06.
 Requested convergence on             energy=1.00D-06.
 No special actions if energy rises.
 Inv3:  Mode=1 IEnd=     5187675.
 Iteration    1 A*A^-1 deviation from unit magnitude is 4.88D-15 for   1296.
 Iteration    1 A*A^-1 deviation from orthogonality  is 2.51D-15 for   1302     23.
 Iteration    1 A^-1*A deviation from unit magnitude is 5.11D-15 for   1296.
 Iteration    1 A^-1*A deviation from orthogonality  is 1.33D-15 for   1315   1036.
 Error on total polarization charges =  0.00908
 SCF Done:  E(RM062X) =  -473.949663411     A.U. after   16 cycles
            NFock= 16  Conv=0.79D-08     -V/T= 2.0033
 D1PCM: C-PCM CHGder 1st derivatives, ID1Alg=3 FixD1E=F DoIter=F DoCFld=F I1PDM=0.
 Calling FoFJK, ICntrl=      2127 FMM=F ISym2X=0 I1Cent= 0 IOpClX= 0 NMat=1 NMatS=1 NMatT=0.
 ***** Axes restored to original set *****
 -------------------------------------------------------------------
 Center     Atomic                   Forces (Hartrees/Bohr)
 Number     Number              X              Y              Z
 -------------------------------------------------------------------
      1        8           0.027949907   -0.021609279   -0.008003555
      2        7           0.021353703    0.084935557    0.075983823
      3        8          -0.062658526   -0.068470392   -0.060987066
      4        8          -0.018902563    0.005270374    0.002658598
      5        6           0.017962757    0.024321051    0.006327895
      6        6           0.025807354   -0.014868334   -0.015822967
      7        6          -0.013313471   -0.018996067    0.007779270
      8        8          -0.006271435   -0.001583376    0.002350149
      9        1          -0.009343636   -0.001170529   -0.019123969
     10        1           0.001680985   -0.011936945    0.000742294
     11        1           0.000118816   -0.003623587    0.015344124
     12        1           0.007689316    0.006418080    0.000244215
     13        1           0.007233070    0.011255574    0.008761150
     14        1           0.000180649    0.008281208   -0.015715171
     15        1           0.000513074    0.001776665   -0.000538790
 -------------------------------------------------------------------
 Cartesian Forces:  Max     0.084935557 RMS     0.026559608

 GradGradGradGradGradGradGradGradGradGradGradGradGradGradGradGradGradGrad
 Berny optimization.
 Using GEDIIS/GDIIS optimizer.
 FormGI is forming the generalized inverse of G from B-inverse, IUseBI=4.
 Internal  Forces:  Max     0.110496712 RMS     0.023163551
 Search for a local minimum.
 Step number   2 out of a maximum of   74
 All quantities printed in internal units (Hartrees-Bohrs-Radians)
 Mixed Optimization -- RFO/linear search
 Update second derivatives using D2CorX and points    1    2
 ITU=  0  0
 Use linear search instead of GDIIS.
     Eigenvalues ---   -4.64605  -0.05153  -0.00629   0.00246   0.00349
     Eigenvalues ---    0.01187   0.02754   0.03490   0.04397   0.04991
     Eigenvalues ---    0.05630   0.06151   0.06901   0.07988   0.08947
     Eigenvalues ---    0.09001   0.09872   0.10730   0.13323   0.15369
     Eigenvalues ---    0.15811   0.18916   0.23430   0.24006   0.25196
     Eigenvalues ---    0.28832   0.29933   0.33889   0.35258   0.35606
     Eigenvalues ---    0.37122   0.38226   0.38941   0.39048   0.39637
     Eigenvalues ---    0.40059   0.41886   0.54927   0.77752
 RFO step:  Lambda=-4.64975239D+00 EMin=-4.64604699D+00
 I=     1 Eig=   -4.65D+00 Dot1= -7.87D-02
 I=     1 Stepn= -6.00D-01 RXN=   6.00D-01 EDone=F
 I=     2 Eig=   -5.15D-02 Dot1= -2.90D-03
 I=     2 Stepn= -3.00D-01 RXN=   6.71D-01 EDone=F
 I=     3 Eig=   -6.29D-03 Dot1=  6.48D-04
 I=     3 Stepn=  1.50D-01 RXN=   6.87D-01 EDone=F
 Mixed    3 eigenvectors in step.  Raw Step.Grad=  8.23D-02.
 RFO eigenvector is Hessian eigenvector with negative curvature.
 Taking step of  6.00D-01 in eigenvector direction(s).  Step.Grad= -7.01D-03.
 Skip linear search -- no minimum in search direction.
 Maximum step size (   0.300) exceeded in Quadratic search.
    -- Step size not scaled.
 Iteration  1 RMS(Cart)=  0.25874345 RMS(Int)=  0.03619255
 Iteration  2 RMS(Cart)=  0.15619347 RMS(Int)=  0.00925572
 Iteration  3 RMS(Cart)=  0.01471519 RMS(Int)=  0.00149391
 Iteration  4 RMS(Cart)=  0.00008444 RMS(Int)=  0.00149338
 Iteration  5 RMS(Cart)=  0.00000001 RMS(Int)=  0.00149338
 Variable       Old X    -DE/DX   Delta X   Delta X   Delta X     New X
                                 (Linear)    (Quad)   (Total)
    R1        2.26603  -0.02806   0.00000  -0.00657  -0.00657   2.25946
    R2        2.53453  -0.11050   0.00000  -0.04564  -0.04564   2.48889
    R3        2.53962   0.00525   0.00000   0.04414   0.04414   2.58375
    R4        2.72403   0.03303   0.00000   0.09002   0.09002   2.81406
    R5        2.88714   0.00705   0.00000   0.00825   0.00825   2.89540
    R6        2.02542   0.01552   0.00000   0.00023   0.00023   2.02565
    R7        2.02108   0.01136   0.00000   0.00069   0.00069   2.02177
    R8        2.91638  -0.01175   0.00000   0.00136   0.00136   2.91774
    R9        2.01998   0.01557   0.00000   0.00475   0.00475   2.02472
   R10        2.02860   0.00291   0.00000  -0.03919  -0.03919   1.98942
   R11        2.70203  -0.00254   0.00000   0.00823   0.00823   2.71026
   R12        2.02162   0.01578   0.00000   0.00034   0.00034   2.02196
   R13        2.02208   0.01767   0.00000  -0.00028  -0.00028   2.02180
   R14        1.81408   0.00077   0.00000   0.00030   0.00030   1.81439
    A1        2.11600   0.00932   0.00000  -0.05456  -0.05465   2.06135
    A2        2.10660  -0.04209   0.00000  -0.06381  -0.06390   2.04270
    A3        2.05803   0.03255   0.00000   0.11629   0.11619   2.17423
    A4        2.00965   0.10164   0.00000   0.32651   0.32651   2.33616
    A5        2.06492   0.05399   0.00000   0.20077   0.20073   2.26565
    A6        1.90264  -0.02100   0.00000  -0.02726  -0.03356   1.86908
    A7        1.82068  -0.02304   0.00000  -0.09101  -0.08608   1.73460
    A8        1.78274   0.00845   0.00000  -0.01126  -0.01627   1.76647
    A9        1.96572  -0.02039   0.00000  -0.08864  -0.08434   1.88138
   A10        1.92709   0.00079   0.00000   0.01784   0.01534   1.94243
   A11        1.88114  -0.00692   0.00000  -0.00595  -0.00597   1.87517
   A12        1.94600   0.00197   0.00000  -0.01247  -0.01249   1.93351
   A13        1.89984   0.00743   0.00000   0.02573   0.02576   1.92560
   A14        1.90757   0.00159   0.00000   0.00242   0.00234   1.90990
   A15        1.90374  -0.00277   0.00000  -0.01189  -0.01186   1.89188
   A16        1.92465  -0.00153   0.00000   0.00187   0.00189   1.92654
   A17        1.91604  -0.00754   0.00000   0.01034   0.01035   1.92638
   A18        1.90439   0.00001   0.00000   0.00024   0.00024   1.90463
   A19        1.91033   0.00239   0.00000  -0.00426  -0.00425   1.90608
   A20        1.91049   0.00399   0.00000  -0.00399  -0.00401   1.90648
   A21        1.91095   0.00260   0.00000  -0.00333  -0.00332   1.90762
   A22        1.91160  -0.00146   0.00000   0.00100   0.00099   1.91260
   A23        1.91221  -0.00323   0.00000   0.00365   0.00365   1.91586
    D1        3.06538  -0.00519   0.00000  -0.03347  -0.03349   3.03189
    D2        2.53929  -0.00733   0.00000  -0.08411  -0.08414   2.45515
    D3       -0.67809  -0.01016   0.00000  -0.11702  -0.11699  -0.79508
    D4        0.73747   0.01926   0.00000   0.24465   0.24590   0.98336
    D5       -1.28710  -0.01055   0.00000   0.15056   0.15155  -1.13555
    D6        2.93747   0.01055   0.00000   0.19059   0.18835   3.12582
    D7        3.08839  -0.00649   0.00000  -0.07357  -0.07570   3.01268
    D8        0.99483  -0.00520   0.00000  -0.06530  -0.06750   0.92733
    D9       -1.13223  -0.00958   0.00000  -0.07697  -0.07914  -1.21137
   D10       -1.10682   0.00316   0.00000  -0.00516  -0.00424  -1.11105
   D11        3.08281   0.00444   0.00000   0.00312   0.00397   3.08678
   D12        0.95575   0.00006   0.00000  -0.00856  -0.00767   0.94808
   D13        0.96034  -0.00051   0.00000  -0.03243  -0.03112   0.92922
   D14       -1.13321   0.00077   0.00000  -0.02416  -0.02292  -1.15613
   D15        3.02291  -0.00361   0.00000  -0.03583  -0.03456   2.98835
   D16       -1.07066   0.00153   0.00000   0.01207   0.01209  -1.05857
   D17        3.11885   0.00121   0.00000   0.01053   0.01053   3.12938
   D18        1.02725   0.00155   0.00000   0.01173   0.01173   1.03898
   D19        1.04702   0.00067   0.00000  -0.00522  -0.00522   1.04180
   D20       -1.04666   0.00036   0.00000  -0.00676  -0.00677  -1.05343
   D21       -3.13825   0.00069   0.00000  -0.00556  -0.00557   3.13936
   D22       -3.13072  -0.00192   0.00000  -0.00873  -0.00872  -3.13944
   D23        1.05879  -0.00223   0.00000  -0.01027  -0.01027   1.04851
   D24       -1.03281  -0.00190   0.00000  -0.00907  -0.00908  -1.04188
   D25       -3.13691   0.00063   0.00000  -0.00125  -0.00125  -3.13816
   D26       -1.04695  -0.00152   0.00000   0.00292   0.00291  -1.04404
   D27        1.04874   0.00073   0.00000  -0.00035  -0.00034   1.04840
         Item               Value     Threshold  Converged?
 Maximum Force            0.110497     0.000450     NO 
 RMS     Force            0.023164     0.000300     NO 
 Maximum Displacement     1.967949     0.001800     NO 
 RMS     Displacement     0.398390     0.001200     NO 
 Predicted change in Energy=-7.097895D-01
 GradGradGradGradGradGradGradGradGradGradGradGradGradGradGradGradGradGrad

                          Input orientation:                          
 ---------------------------------------------------------------------
 Center     Atomic      Atomic             Coordinates (Angstroms)
 Number     Number       Type             X           Y           Z
 ---------------------------------------------------------------------
      1          8           0       -3.169426   -0.110759   -0.225492
      2          7           0       -2.120732    0.204285    0.254693
      3          8           0       -2.112835    1.173236    1.146727
      4          8           0       -1.032613   -0.554624   -0.076161
      5          6           0        0.390604   -0.239841   -0.380928
      6          6           0        1.431065    0.509161    0.458122
      7          6           0        2.789185    0.378847   -0.264703
      8          8           0        3.165764   -1.000637   -0.374994
      9          1           0        0.399328    0.335117   -1.285571
     10          1           0        0.756835   -1.231246   -0.547144
     11          1           0        1.506781    0.083467    1.438443
     12          1           0        1.184321    1.530717    0.520040
     13          1           0        3.535401    0.904354    0.293732
     14          1           0        2.709028    0.802858   -1.243709
     15          1           0        4.012194   -1.071435   -0.822655
 ---------------------------------------------------------------------
                    Distance matrix (angstroms):
                    1          2          3          4          5
     1  O    0.000000
     2  N    1.195654   0.000000
     3  O    2.155925   1.317063   0.000000
     4  O    2.187529   1.367263   2.376518   0.000000
     5  C    3.565759   2.628321   3.255415   1.489134   0.000000
     6  C    4.692136   3.570657   3.670749   2.736203   1.532177
     7  C    5.978820   4.940397   5.162653   3.938662   2.479813
     8  O    6.399130   5.458515   5.908043   4.232564   2.877561
     9  H    3.749477   2.956388   3.595759   2.074793   1.071929
    10  H    4.095665   3.314224   4.109226   1.970220   1.069877
    11  H    4.967224   3.817684   3.791347   3.024848   2.158817
    12  H    4.712258   3.571163   3.375169   3.101435   2.139300
    13  H    6.801084   5.699426   5.718608   4.809594   3.413810
    14  H    6.035535   5.092159   5.394602   4.147988   2.684530
    15  H    7.270155   6.356171   6.814176   5.125858   3.742002
                    6          7          8          9         10
     6  C    0.000000
     7  C    1.544004   0.000000
     8  O    2.445967   1.434208   0.000000
     9  H    2.033528   2.599134   3.204147   0.000000
    10  H    2.119944   2.608183   2.426058   1.768213   0.000000
    11  H    1.071437   2.152328   2.686273   2.951276   2.496687
    12  H    1.052755   2.125609   3.336908   2.303455   2.991666
    13  H    2.147425   1.069975   2.052514   3.557131   3.603927
    14  H    2.148413   1.069890   2.053258   2.356958   2.904107
    15  H    3.286472   1.977468   0.960133   3.904546   3.270903
                   11         12         13         14         15
    11  H    0.000000
    12  H    1.744126   0.000000
    13  H    2.469721   2.443588   0.000000
    14  H    3.026031   2.442401   1.748405   0.000000
    15  H    3.566996   4.070736   2.318921   2.321314   0.000000
 Stoichiometry    C3H7NO4
 Framework group  C1[X(C3H7NO4)]
 Deg. of freedom    39
 Full point group                 C1      NOp   1
 Largest Abelian subgroup         C1      NOp   1
 Largest concise Abelian subgroup C1      NOp   1
                         Standard orientation:                         
 ---------------------------------------------------------------------
 Center     Atomic      Atomic             Coordinates (Angstroms)
 Number     Number       Type             X           Y           Z
 ---------------------------------------------------------------------
      1          8           0        3.122335   -0.718292    0.219793
      2          7           0        2.163659   -0.044681   -0.018489
      3          8           0        2.340662    1.249817   -0.184617
      4          8           0        0.979315   -0.697849   -0.218761
      5          6           0       -0.430655   -0.420628    0.171947
      6          6           0       -1.302572    0.807931   -0.107286
      7          6           0       -2.733842    0.477305    0.368214
      8          8           0       -3.250915   -0.650579   -0.351137
      9          1           0       -0.476629   -0.470019    1.241750
     10          1           0       -0.905819   -1.267640   -0.276859
     11          1           0       -1.318057    1.032988   -1.154706
     12          1           0       -0.953494    1.636327    0.440616
     13          1           0       -3.364746    1.324252    0.196497
     14          1           0       -2.713988    0.251022    1.413712
     15          1           0       -4.141640   -0.846588   -0.051062
 ---------------------------------------------------------------------
 Rotational constants (GHZ):           6.3171934           0.7710372           0.7090678
 Standard basis: 6-311+G(d,p) (5D, 7F)
 There are   226 symmetry adapted cartesian basis functions of A   symmetry.
 There are   218 symmetry adapted basis functions of A   symmetry.
   218 basis functions,   344 primitive gaussians,   226 cartesian basis functions
    32 alpha electrons       32 beta electrons
       nuclear repulsion energy       381.6507416517 Hartrees.
 NAtoms=   15 NActive=   15 NUniq=   15 SFac= 1.00D+00 NAtFMM=   60 NAOKFM=F Big=F
 Integral buffers will be    131072 words long.
 Raffenetti 2 integral format.
 Two-electron integral symmetry is turned on.
 ------------------------------------------------------------------------------
 Polarizable Continuum Model (PCM)
 =================================
 Model                : C-PCM.
 Atomic radii         : UFF (Universal Force Field).
 Polarization charges : Total charges.
 Charge compensation  : None.
 Solution method      : Matrix inversion.
 Cavity type          : Scaled VdW (van der Waals Surface) (Alpha=1.100).
 Cavity algorithm     : GePol (No added spheres)
                        Default sphere list used, NSphG=   15.
                        Lebedev-Laikov grids with approx.  5.0 points / Ang**2.
                        Smoothing algorithm: York/Karplus (Gamma=1.0000).
                        Polarization charges: spherical gaussians, with
                                              point-specific exponents (IZeta= 3).
                        Self-potential: point-specific (ISelfS= 7).
                        Self-field    : sphere-specific E.n sum rule (ISelfD= 2).
 1st derivatives      : Analytical E(r).r(x)/FMM algorithm (CHGder, D1EAlg=3).
                        Cavity 1st derivative terms included.
 Solvent              : Water, Eps=  78.355300 Eps(inf)=   1.777849
 ------------------------------------------------------------------------------
 Spheres list:
 ISph  on   Nord     Re0    Alpha      Xe            Ye            Ze
    1   O      1    1.7500  1.100      3.122335     -0.718292      0.219793
    2   N      2    1.8300  1.100      2.163659     -0.044681     -0.018489
    3   O      3    1.7500  1.100      2.340662      1.249817     -0.184617
    4   O      4    1.7500  1.100      0.979315     -0.697849     -0.218761
    5   C      5    1.9255  1.100     -0.430655     -0.420628      0.171947
    6   C      6    1.9255  1.100     -1.302572      0.807931     -0.107286
    7   C      7    1.9255  1.100     -2.733842      0.477305      0.368214
    8   O      8    1.7500  1.100     -3.250915     -0.650579     -0.351137
    9   H      9    1.4430  1.100     -0.476629     -0.470019      1.241750
   10   H     10    1.4430  1.100     -0.905819     -1.267640     -0.276859
   11   H     11    1.4430  1.100     -1.318057      1.032988     -1.154706
   12   H     12    1.4430  1.100     -0.953494      1.636327      0.440616
   13   H     13    1.4430  1.100     -3.364746      1.324252      0.196497
   14   H     14    1.4430  1.100     -2.713988      0.251022      1.413712
   15   H     15    1.4430  1.100     -4.141640     -0.846588     -0.051062
 ------------------------------------------------------------------------------
 One-electron integrals computed using PRISM.
 NBasis=   218 RedAO= T EigKep=  3.87D-05  NBF=   218
 NBsUse=   218 1.00D-06 EigRej= -1.00D+00 NBFU=   218
 Initial guess from the checkpoint file:  "ZINC000034075380.chk"
 B after Tr=    -0.000000   -0.000000   -0.000000
         Rot=    0.999642   -0.019728    0.006687    0.016805 Ang=  -3.07 deg.
 ExpMin= 4.38D-02 ExpMax= 8.59D+03 ExpMxC= 1.30D+03 IAcc=3 IRadAn=         5 AccDes= 0.00D+00
 Harris functional with IExCor= 1009 and IRadAn=       5 diagonalized for initial guess.
 HarFok:  IExCor= 1009 AccDes= 0.00D+00 IRadAn=         5 IDoV= 1 UseB2=F ITyADJ=14
 ICtDFT=  3500011 ScaDFX=  1.000000  1.000000  1.000000  1.000000
 FoFCou: FMM=F IPFlag=           0 FMFlag=      100000 FMFlg1=           0
         NFxFlg=           0 DoJE=T BraDBF=F KetDBF=T FulRan=T
         wScrn=  0.000000 ICntrl=       500 IOpCl=  0 I1Cent=   200000004 NGrid=           0
         NMat0=    1 NMatS0=      1 NMatT0=    0 NMatD0=    1 NMtDS0=    0 NMtDT0=    0
 Petite list used in FoFCou.
 Requested convergence on RMS density matrix=1.00D-08 within 128 cycles.
 Requested convergence on MAX density matrix=1.00D-06.
 Requested convergence on             energy=1.00D-06.
 No special actions if energy rises.
 Inv3:  Mode=1 IEnd=     5880000.
 Iteration    1 A*A^-1 deviation from unit magnitude is 5.55D-15 for   1393.
 Iteration    1 A*A^-1 deviation from orthogonality  is 2.82D-15 for   1377    213.
 Iteration    1 A^-1*A deviation from unit magnitude is 5.33D-15 for   1393.
 Iteration    1 A^-1*A deviation from orthogonality  is 1.53D-15 for   1337   1132.
 Error on total polarization charges =  0.00913
 SCF Done:  E(RM062X) =  -473.937833140     A.U. after   15 cycles
            NFock= 15  Conv=0.68D-08     -V/T= 2.0037
 D1PCM: C-PCM CHGder 1st derivatives, ID1Alg=3 FixD1E=F DoIter=F DoCFld=F I1PDM=0.
 Calling FoFJK, ICntrl=      2127 FMM=F ISym2X=0 I1Cent= 0 IOpClX= 0 NMat=1 NMatS=1 NMatT=0.
 ***** Axes restored to original set *****
 -------------------------------------------------------------------
 Center     Atomic                   Forces (Hartrees/Bohr)
 Number     Number              X              Y              Z
 -------------------------------------------------------------------
      1        8           0.024756820   -0.016967648   -0.010307793
      2        7          -0.020786901    0.080138747    0.062251397
      3        8           0.034903516   -0.068388769   -0.061154965
      4        8          -0.014166873   -0.004692754    0.012809401
      5        6           0.009622528    0.026646004   -0.004371335
      6        6          -0.004779144   -0.030730547    0.001429995
      7        6          -0.012191843   -0.019225767    0.005074638
      8        8          -0.009839455    0.002633698    0.005121913
      9        1          -0.010756354   -0.001672752   -0.018252248
     10        1          -0.002514641   -0.012845888   -0.003522091
     11        1           0.002445526   -0.003144865    0.014446037
     12        1          -0.005144305    0.026946008    0.004059565
     13        1           0.008156727    0.010215075    0.008322366
     14        1          -0.000237972    0.008375296   -0.015292827
     15        1           0.000532372    0.002714163   -0.000614054
 -------------------------------------------------------------------
 Cartesian Forces:  Max     0.080138747 RMS     0.024223407

 GradGradGradGradGradGradGradGradGradGradGradGradGradGradGradGradGradGrad
 Berny optimization.
 Using GEDIIS/GDIIS optimizer.
 FormGI is forming the generalized inverse of G from B-inverse, IUseBI=4.
 Internal  Forces:  Max     0.091524391 RMS     0.019645395
 Search for a local minimum.
 Step number   3 out of a maximum of   74
 All quantities printed in internal units (Hartrees-Bohrs-Radians)
 Mixed Optimization -- RFO/linear search
 Update second derivatives using D2CorX and points    1    3    2
 ITU=  0  0  0
 Use linear search instead of GDIIS.
     Eigenvalues ---   -0.05580  -0.00618   0.00246   0.00349   0.01065
     Eigenvalues ---    0.02741   0.03489   0.04359   0.04990   0.05599
     Eigenvalues ---    0.06146   0.06834   0.07902   0.08840   0.08953
     Eigenvalues ---    0.09818   0.10663   0.13304   0.14892   0.15561
     Eigenvalues ---    0.18736   0.23245   0.23817   0.25038   0.28360
     Eigenvalues ---    0.28876   0.32993   0.34895   0.35604   0.36454
     Eigenvalues ---    0.38220   0.38876   0.39000   0.39560   0.39637
     Eigenvalues ---    0.40303   0.54927   0.55256   0.77976
 RFO step:  Lambda=-8.74208029D-02 EMin=-5.58009308D-02
 Quartic linear search produced a step of -0.70164.
 Maximum step size (   0.300) exceeded in Quadratic search.
    -- Step size scaled by   0.483
 Iteration  1 RMS(Cart)=  0.22046794 RMS(Int)=  0.03877877
 Iteration  2 RMS(Cart)=  0.04930537 RMS(Int)=  0.00158070
 Iteration  3 RMS(Cart)=  0.00328534 RMS(Int)=  0.00084425
 Iteration  4 RMS(Cart)=  0.00001038 RMS(Int)=  0.00084422
 Iteration  5 RMS(Cart)=  0.00000000 RMS(Int)=  0.00084422
 Variable       Old X    -DE/DX   Delta X   Delta X   Delta X     New X
                                 (Linear)    (Quad)   (Total)
    R1        2.25946  -0.01310   0.00461   0.01661   0.02122   2.28068
    R2        2.48889  -0.09152   0.03202  -0.25153  -0.21951   2.26938
    R3        2.58375  -0.03606  -0.03097   0.00130  -0.02967   2.55408
    R4        2.81406  -0.02079  -0.06316   0.00468  -0.05848   2.75557
    R5        2.89540  -0.00303  -0.00579   0.01893   0.01314   2.90853
    R6        2.02565   0.01442  -0.00016   0.01710   0.01694   2.04260
    R7        2.02177   0.01159  -0.00048   0.01070   0.01022   2.03199
    R8        2.91774  -0.01357  -0.00096  -0.01463  -0.01558   2.90216
    R9        2.02472   0.01464  -0.00333   0.01472   0.01139   2.03611
   R10        1.98942   0.02759   0.02749   0.01193   0.03943   2.02884
   R11        2.71026  -0.00793  -0.00577  -0.00772  -0.01350   2.69676
   R12        2.02196   0.01505  -0.00024   0.01613   0.01589   2.03785
   R13        2.02180   0.01733   0.00020   0.01786   0.01806   2.03986
   R14        1.81439   0.00055  -0.00021   0.00083   0.00062   1.81501
    A1        2.06135   0.05091   0.03835   0.08443   0.12201   2.18336
    A2        2.04270  -0.01470   0.04483  -0.04704  -0.00303   2.03968
    A3        2.17423  -0.03597  -0.08153  -0.03205  -0.11438   2.05985
    A4        2.33616  -0.06543  -0.22909   0.06446  -0.16463   2.17153
    A5        2.26565  -0.04694  -0.14084   0.05207  -0.08878   2.17687
    A6        1.86908   0.00245   0.02355  -0.04159  -0.01463   1.85445
    A7        1.73460   0.00854   0.06039  -0.02274   0.03603   1.77063
    A8        1.76647   0.02739   0.01142   0.01535   0.02814   1.79460
    A9        1.88138   0.01650   0.05918  -0.00099   0.05611   1.93749
   A10        1.94243  -0.00818  -0.01076  -0.00833  -0.01833   1.92409
   A11        1.87517  -0.00638   0.00419  -0.02156  -0.01727   1.85790
   A12        1.93351   0.00351   0.00876   0.00836   0.01705   1.95056
   A13        1.92560   0.00252  -0.01807   0.03665   0.01848   1.94408
   A14        1.90990   0.00120  -0.00164   0.00107  -0.00041   1.90949
   A15        1.89188   0.00138   0.00832  -0.01046  -0.00206   1.88982
   A16        1.92654  -0.00235  -0.00133  -0.01481  -0.01633   1.91021
   A17        1.92638  -0.01176  -0.00726  -0.01350  -0.02075   1.90563
   A18        1.90463  -0.00049  -0.00017  -0.00239  -0.00254   1.90209
   A19        1.90608   0.00373   0.00298   0.00496   0.00797   1.91405
   A20        1.90648   0.00602   0.00281   0.00871   0.01146   1.91794
   A21        1.90762   0.00406   0.00233   0.00599   0.00834   1.91597
   A22        1.91260  -0.00155  -0.00070  -0.00379  -0.00451   1.90809
   A23        1.91586  -0.00503  -0.00256  -0.00597  -0.00853   1.90733
    D1        3.03189   0.00221   0.02350   0.05715   0.08233   3.11422
    D2        2.45515   0.00206   0.05904   0.17742   0.23828   2.69343
    D3       -0.79508   0.00803   0.08209   0.24155   0.32182  -0.47326
    D4        0.98336   0.00108  -0.17253  -0.15114  -0.32368   0.65968
    D5       -1.13555  -0.00385  -0.10634  -0.17199  -0.28002  -1.41557
    D6        3.12582   0.00071  -0.13215  -0.13943  -0.26990   2.85592
    D7        3.01268  -0.00141   0.05312   0.07168   0.12597   3.13865
    D8        0.92733  -0.00097   0.04736   0.07880   0.12745   1.05478
    D9       -1.21137  -0.00211   0.05553   0.06672   0.12336  -1.08801
   D10       -1.11105  -0.00390   0.00297   0.06704   0.06900  -1.04205
   D11        3.08678  -0.00346  -0.00278   0.07415   0.07048  -3.12593
   D12        0.94808  -0.00460   0.00538   0.06208   0.06639   1.01447
   D13        0.92922   0.00591   0.02184   0.06441   0.08602   1.01524
[...]
 ! D25   D(6,7,8,15)           178.0861         -DE/DX =    0.0                 !
 ! D26   D(13,7,8,15)          -62.099          -DE/DX =    0.0                 !
 ! D27   D(14,7,8,15)           57.7889         -DE/DX =    0.0                 !
 --------------------------------------------------------------------------------
 GradGradGradGradGradGradGradGradGradGradGradGradGradGradGradGradGradGrad


 ----------------------------------------------------------------------

 Electric dipole moment (input orientation):
 (Debye = 10**-18 statcoulomb cm , SI units = C m)
                  (au)            (Debye)         (10**-30 SI)
   Tot        0.223917D+01      0.569141D+01      0.189845D+02
   x          0.211869D+01      0.538518D+01      0.179630D+02
   y          0.345800D+00      0.878936D+00      0.293181D+01
   z         -0.636753D+00     -0.161847D+01     -0.539862D+01

 Dipole polarizability, Alpha (input orientation).
 (esu units = cm**3 , SI units = C**2 m**2 J**-1)
 Alpha(0;0):
               (au)            (10**-24 esu)      (10**-40 SI)
   iso        0.761982D+02      0.112914D+02      0.125634D+02
   aniso      0.294713D+02      0.436720D+01      0.485916D+01
   xx         0.896466D+02      0.132843D+02      0.147807D+02
   yx        -0.878713D+00     -0.130212D+00     -0.144880D+00
   yy         0.745866D+02      0.110526D+02      0.122977D+02
   zx        -0.107802D+02     -0.159747D+01     -0.177742D+01
   zy        -0.327891D+01     -0.485884D+00     -0.540619D+00
   zz         0.643615D+02      0.953740D+01      0.106118D+02

 ----------------------------------------------------------------------

 Dipole orientation:
     8         -0.31749059         -1.07508878         -5.41663689
     7         -0.76455137         -1.18074751         -3.19975417
     8         -1.57657072         -2.94179842         -2.02145680
     8         -0.27800403          1.02610834         -1.95044747
     6         -0.63608927          0.95143410          0.76639654
     6          1.54226722         -0.36101439          2.09141859
     6          1.21939380         -0.20916032          4.93846082
     8          1.20477557          2.39095301          5.62754875
     1         -2.45595303          0.08096905          1.18249491
     1         -0.70807855          2.95013588          1.24129452
     1          3.31635966          0.54774007          1.55000030
     1          1.63229690         -2.34674650          1.53907004
     1          2.77705287         -1.20196859          5.86480890
     1         -0.55548185         -1.11442930          5.50290464
     1          0.94447608          2.52008746          7.42037363

 Electric dipole moment (dipole orientation):
 (Debye = 10**-18 statcoulomb cm , SI units = C m)
                  (au)            (Debye)         (10**-30 SI)
   Tot        0.223917D+01      0.569141D+01      0.189845D+02
   x          0.000000D+00      0.000000D+00      0.000000D+00
   y          0.000000D+00      0.000000D+00      0.000000D+00
   z          0.223917D+01      0.569141D+01      0.189845D+02

 Dipole polarizability, Alpha (dipole orientation).
 (esu units = cm**3 , SI units = C**2 m**2 J**-1)
 Alpha(0;0):
               (au)            (10**-24 esu)      (10**-40 SI)
   iso        0.761982D+02      0.112914D+02      0.125634D+02
   aniso      0.294713D+02      0.436720D+01      0.485916D+01
   xx         0.614008D+02      0.909866D+01      0.101236D+02
   yx         0.461691D+01      0.684156D+00      0.761226D+00
   yy         0.741187D+02      0.109833D+02      0.122205D+02
   zx        -0.218639D+01     -0.323989D+00     -0.360486D+00
   zy         0.305981D+01      0.453417D+00      0.504495D+00
   zz         0.930752D+02      0.137923D+02      0.153460D+02

 ----------------------------------------------------------------------
 Unable to Open any file for archive entry.
 1\1\GINC-GADI-CPU-CLX-2926\Freq\RM062X\6-311+G(d,p)\C3H7N1O4\RR5466\29
 -Jun-2023\0\\#N Geom=AllCheck Guess=TCheck SCRF=Check GenChk RM062X/6-
 311+G(d,p) Freq\\ZINC000034075380.mol\\0,1\O,-2.8277572115,0.134805112
 6,0.7439955237\N,-1.7957821765,0.3977619422,0.1951837792\O,-1.44199960
 64,1.4575453874,-0.2447943113\O,-0.959388283,-0.6755675335,0.070453793
 2\C,0.339048651,-0.3932014866,-0.5115747558\C,1.2726865602,0.265556436
 2,0.4870024333\C,2.6555971121,0.4387949073,-0.1155001957\O,3.154821738
 7,-0.854382956,-0.4390010544\H,0.2032461195,0.2024437021,-1.4142684284
 \H,0.6856226363,-1.3880856606,-0.7824213664\H,1.3407084864,-0.35746013
 77,1.3825074984\H,0.8910055588,1.2462892779,0.7774769679\H,3.309357977
 9,0.9363357405,0.6061625131\H,2.5991884625,1.0619301367,-1.0151471878\
 H,4.0185439741,-0.7592648684,-0.8496752091\\Version=ES64L-G16RevC.01\S
 tate=1-A\HF=-473.9933091\RMSD=3.531e-09\RMSF=1.818e-05\ZeroPoint=0.118
 0328\Thermal=0.1264726\ETot=-473.8668365\HTot=-473.8658923\GTot=-473.9
 095763\Dipole=2.1186943,0.3457999,-0.6367532\DipoleDeriv=-1.6289004,-0
 .280466,0.619484,-0.0821973,-0.6023293,0.1336993,0.6437167,0.2203818,-
 0.6139615,2.8098118,0.0084243,-0.9758088,-0.3914352,2.3865769,-0.45949
 81,-0.9804232,-0.5442636,1.0153267,-0.7255126,-0.1547636,0.2248085,-0.
 2254798,-1.3680059,0.4322691,0.2456129,0.3734068,-0.486524,-1.4760764,
 0.3366496,0.2192738,0.5972059,-0.8045277,-0.1018473,0.2680552,-0.04048
 95,-0.4022156,1.0340359,0.0079105,-0.0844446,0.1637509,0.2569384,-0.03
 49581,-0.1487877,0.0460755,0.3986358,-0.1584953,0.0226178,0.0943044,-0
 .0677884,0.0653866,-0.0085869,0.0723468,-0.1125042,0.0064937,0.5887634
 ,-0.2980266,-0.0776701,-0.2871156,0.8499236,0.1216715,-0.1344827,0.152
 1797,0.4794056,-0.7912915,0.3444798,0.0409051,0.3532404,-0.9740675,-0.
 1764197,0.0458318,-0.1723606,-0.7130576,-0.0268637,0.0262302,-0.045174
 8,-0.0343924,0.0738399,0.0949342,-0.0075222,0.0274935,-0.0256639,0.037
 1116,0.0013136,0.00983,-0.0097226,-0.0099331,-0.052197,0.0185104,-0.02
 85257,0.0999047,0.0417089,-0.0188321,-0.01497,-0.0356417,0.012355,0.11
 12038,-0.0300936,0.0781811,-0.0658148,0.0576434,0.0603597,0.01511,0.04
 14399,-0.0520629,-0.0733557,-0.0040463,-0.0326138,0.0678803,-0.1023091
 ,-0.0636705,-0.0804748,-0.0093516,-0.0449189,-0.077473,-0.072283,-0.11
 52126,-0.0434857,0.0257912,0.0441863,-0.0020352,0.0516614,-0.0825899,0
 .0695333,0.0316635,0.1341178,-0.1271912,0.3145829,-0.036413,0.0568626,
 -0.0641741,0.2934148,0.0210247,0.0519013,0.0141338,0.4102675\Polar=89.
 6466302,-0.8787127,74.5865595,-10.7802414,-3.2789096,64.3615379\Quadru
 pole=0.4936574,-2.6720369,2.1783794,3.5140467,-0.0197156,1.1246132\PG=
 C01 [X(C3H7N1O4)]\NImag=0\\0.57722130,0.10841352,0.16779296,-0.2797328
 1,-0.08409121,0.19009977,-0.44980647,-0.08602260,0.18562733,0.76927930
 ,-0.07582226,-0.14934075,0.04775812,0.17155415,0.74565754,0.18311333,0
 .05299218,-0.19701209,-0.27351226,-0.20214269,0.44958025,-0.03706025,-
 0.08129943,0.05432746,-0.16421354,-0.10802430,0.06009434,0.18641557,-0
 .07349029,-0.03032583,0.05139167,-0.09617805,-0.46665164,0.14009019,0.
 14893735,0.59806898,0.05276105,0.05454862,-0.00474861,0.05590194,0.148
 24014,-0.16160058,-0.10776918,-0.21409593,0.14391405,-0.09318190,0.059
 14075,0.03889826,-0.11133262,-0.00653542,0.01648833,0.01959121,0.02735
 326,-0.00140038,0.39714216,0.03040939,0.01601654,-0.01257440,-0.020325
 05,-0.14093234,0.02738271,0.03025274,-0.09803480,0.01642397,-0.0103282
 7,0.32449778,0.04455338,-0.02497631,0.00559985,0.02124787,0.01964314,-
 0.08068358,-0.00406777,0.01937243,0.02332264,-0.13057502,-0.05642367,0
 .13595184,0.00986499,-0.00411748,-0.00229894,-0.04899496,0.03937394,0.
 01218975,0.00012893,-0.01363368,0.00302404,-0.13474267,-0.02748402,0.0
 3866845,0.43022411,0.01051801,-0.00626279,-0.00154094,0.03388888,0.014
 49137,-0.02282696,0.00508304,-0.00551885,-0.00209947,-0.05244821,-0.10
 223748,0.03810942,-0.05901011,0.64005040,-0.00375506,0.00353071,0.0071
 6824,0.01566165,-0.02843156,-0.00815609,0.00105955,0.00622447,-0.00398
 378,0.04052498,0.02907089,-0.08093668,0.02969664,-0.02484145,0.5543527
 1,-0.00133926,0.00108354,0.00242333,0.00282835,-0.00678641,-0.00422046
 ,-0.00149170,0.00108876,-0.00092630,-0.04166513,-0.01596995,-0.0131941
 2,-0.10630654,-0.02181731,-0.04808755,0.49153499,0.00083087,0.00003869
 ,-0.00020997,0.00084969,0.00287125,0.00111860,-0.00158671,-0.00040655,
 -0.00076011,-0.00735845,-0.00285687,-0.00110095,-0.02683522,-0.1084842
 4,-0.03880918,-0.03833472,0.60823491,0.00290486,-0.00098322,-0.0022118
 7,-0.00513677,0.00834689,0.00230829,-0.00064863,-0.00269888,0.00015778
 ,0.02111781,0.00594732,0.01203620,-0.06038160,-0.04313026,-0.15271045,
 -0.01005649,-0.01918624,0.56154735,0.00086234,0.00012215,-0.00047552,-
 0.00153527,-0.00057111,0.00057630,0.00095451,0.00027537,-0.00008231,-0
 .00040292,-0.00128053,-0.00200635,-0.03038455,-0.00694813,0.00573920,-
 0.18297012,-0.03297720,0.04419116,0.53106761,-0.00055466,0.00037872,0.
 00023471,0.00133606,-0.00334483,-0.00041907,0.00067156,0.00113618,0.00
 008083,-0.00601734,-0.00158251,-0.00196638,-0.01356021,-0.00107342,0.0
 0934212,-0.01985273,-0.07952426,0.00731500,0.04457113,0.52042000,-0.00
 196064,0.00053331,0.00137412,0.00371939,-0.00400509,-0.00149429,-0.000
 61916,0.00101077,-0.00029591,-0.01075858,-0.00267903,-0.00196834,-0.01
 451795,0.00260242,0.01303271,0.04331107,0.01517990,-0.10300457,0.04072
 768,-0.02103071,0.59003557,-0.00132807,0.00007769,0.00068109,0.0022561
 6,-0.00054838,-0.00044272,-0.00098644,0.00007026,-0.00012857,-0.001133
 47,0.00133082,0.00021937,0.00191558,-0.00038772,-0.00034634,-0.0194140
 5,0.04297926,0.01216457,-0.09918709,0.05632630,0.02234340,0.54756446,0
 .00047146,0.00003336,-0.00028168,-0.00131128,0.00037874,0.00035572,0.0
 0032967,-0.00004237,0.00004974,0.00115441,0.00052124,0.00019263,-0.001
 53782,-0.00072079,-0.00135457,0.00733975,-0.00324568,-0.00255379,0.018
 36703,-0.22136136,-0.01984464,-0.01846628,0.33784039,0.00042176,0.0000
 5025,-0.00028232,-0.00105536,-0.00003686,0.00037047,0.00043415,0.00009
 753,0.00007261,0.00051840,0.00027576,0.00015274,-0.00089717,-0.0007392
 5,-0.00032980,0.01089381,-0.02078489,-0.00326503,0.01939881,-0.0370505
 3,-0.07449997,-0.24239499,0.02775423,0.16398822,-0.00124398,0.00043681
 ,-0.00047514,0.00487797,-0.00548115,0.00092986,-0.00168051,0.00334156,
 0.00031748,-0.01191297,-0.02056895,0.03524723,-0.05575856,0.02789633,-
 0.04024356,-0.00186287,0.01176389,-0.01643990,0.00168358,0.00085936,-0
 .00101414,-0.00003617,-0.00006679,0.00037281,0.06750044,0.00016886,0.0
 0049238,0.00030418,0.00099393,-0.00113707,-0.00105639,0.00241617,-0.00
 055480,-0.00204550,-0.00356452,-0.00361695,0.00466574,0.01885562,-0.13
 392748,0.12654462,-0.00245163,0.00950395,-0.01381047,0.00101673,0.0008
 4932,-0.00010899,0.00025637,-0.00007079,-0.00003216,-0.01920315,0.1414
 4004,-0.00015865,-0.00104575,0.00049373,-0.00150029,0.00670275,-0.0012
 5628,-0.00152039,-0.00182617,0.00168032,0.00997515,0.00567530,-0.01217
 198,-0.03207587,0.12118129,-0.23347240,-0.00397785,0.01181497,-0.01662
 547,0.00063202,0.00027541,0.00049641,-0.00027712,0.00004622,-0.0001409
 1,0.03147308,-0.13593015,0.25191917,-0.00380081,0.00168889,0.00103027,
 -0.00231862,-0.00485894,0.00435858,0.00024710,0.00090913,-0.00047219,-
 0.02331690,0.03225483,0.00950651,-0.06914560,0.07335200,0.01940539,0.0
 0879389,-0.01975893,-0.00502427,0.00108623,-0.00028425,0.00015668,-0.0
 0148655,0.00023090,0.00010450,0.00039442,0.00275458,-0.00036867,0.0915
 8759,-0.00101015,0.00081482,-0.00021076,-0.00372615,0.00015087,0.00313
 248,0.00105354,0.00103629,-0.00114758,-0.00288755,0.00645737,0.0019147
 6,0.08555502,-0.29259162,-0.06261701,0.00272556,-0.01134824,-0.0026089
 8,0.00063138,-0.00110636,-0.00099391,0.00099617,0.00068930,0.00046765,
 0.00432261,-0.01262665,-0.00475192,-0.08588862,0.30677889,0.00167444,-
 0.00099610,0.00012511,0.00015671,0.00547508,-0.00333398,-0.00172659,-0
 .00068670,0.00165588,0.01280687,-0.01490617,-0.00453265,0.01780500,-0.
 05737287,-0.06618718,0.00536698,-0.02183663,-0.00565197,0.00074004,-0.
 00036503,0.00016863,0.00051613,0.00053360,0.00009054,-0.00900693,0.023
 07442,0.00927307,-0.02608610,0.06794754,0.06948255,-0.00022563,-0.0001
 4677,0.00010906,-0.00002856,0.00107360,-0.00016631,-0.00039112,-0.0004
 9879,0.00010604,0.00223233,0.00063864,0.00037624,-0.00407573,0.0117164
 1,-0.01907549,-0.04776726,0.01175746,-0.01515240,0.00039213,-0.0199100
 3,0.02827132,0.00244479,-0.00000018,-0.00208762,-0.00218396,-0.0023254
 8,-0.00236494,0.00070248,-0.00010708,0.00090169,0.05382393,0.00015242,
 0.00009072,-0.00026210,-0.00020891,-0.00036970,0.00049324,0.00045752,0
 .00028810,0.00016173,0.00159077,0.00038390,0.00044089,-0.00212365,0.00
 901854,-0.01513955,0.01026081,-0.13873320,0.12608965,0.00077194,-0.004
 51364,0.00340291,-0.00018467,0.00134030,-0.00057626,-0.00252511,-0.000
 75988,-0.00202623,0.00075070,0.00084329,0.00038219,-0.00806463,0.14591
 175,-0.00040735,0.00001700,0.00015024,0.00039944,-0.00012286,-0.000191
 86,0.00004369,-0.00002586,0.00002214,0.00069337,0.00017294,0.00191711,
 -0.00158170,0.01300183,-0.02089014,-0.01592389,0.12291218,-0.22473872,
 0.00049475,0.00758121,-0.01105225,-0.00098625,-0.00033576,0.00073486,-
 0.00251795,-0.00237115,-0.00152055,0.00036216,0.00003263,0.00073884,0.
 01740129,-0.13547535,0.24509225,0.00084322,0.00042293,-0.00058023,-0.0
 0265640,-0.00173772,0.00102410,-0.00131470,0.00135232,-0.00124813,0.00
 198145,0.00117021,0.00106260,0.00749081,-0.02238362,-0.00687630,-0.081
 11112,0.08506370,0.02633694,-0.00635295,0.02830521,0.00477153,-0.00800
 884,-0.00040149,0.00418161,0.00050665,0.00076250,0.00070977,-0.0028443
 2,-0.00157492,-0.00311424,-0.00111206,0.00023151,-0.00009535,0.0912011
 8,0.00000429,0.00023774,-0.00052430,-0.00083806,-0.00157897,0.00077725
 ,0.00168750,0.00094822,0.00063993,0.00000781,0.00078103,0.00045711,0.0
 0423454,-0.01303484,-0.00432409,0.08576313,-0.26777593,-0.06279924,-0.
 00141986,0.00392231,0.00149438,-0.00133315,0.00111966,0.00066645,-0.00
 026123,0.00058136,0.00020474,-0.00180067,0.00045093,-0.00165367,0.0058
 9251,-0.01439203,-0.00512126,-0.09236953,0.28779777,0.00024302,0.00048
 003,-0.00051375,-0.00080276,-0.00214602,0.00127573,0.00029283,0.001285
 60,-0.00028462,0.00000325,0.00164242,0.00090571,0.00990524,-0.02115462
 ,-0.00733892,0.02347304,-0.06028510,-0.06656477,0.00273267,-0.01171887
 ,-0.00454271,0.00306646,0.00043745,-0.00066151,0.00062125,0.00027112,0
 .00069028,-0.00311959,-0.00154256,-0.00190812,-0.00994827,0.02280811,0
 .00840193,-0.02591633,0.07038210,0.06964199,-0.00088000,0.00025069,0.0
 0049119,0.00172243,-0.00184782,-0.00047431,-0.00020012,0.00053956,-0.0
 0006491,-0.00376665,-0.00051918,-0.00064004,-0.00177322,0.00111996,0.0
 0477606,-0.02014059,-0.01208158,-0.02109020,-0.15050624,-0.07033845,-0
 .10755160,0.01152169,0.01239545,0.01209120,0.00007965,0.00021301,0.000
 06063,0.00010601,-0.00014794,0.00000938,0.00148674,-0.00008851,0.00012
 391,0.00075820,0.00038436,-0.00024552,0.15964810,-0.00005008,-0.000003
 86,0.00002021,0.00010051,-0.00003595,-0.00000150,-0.00001627,-0.000014
 81,-0.00001179,-0.00006036,0.00019040,-0.00016173,0.00017713,0.0010819
 0,0.00056532,-0.00373690,-0.00104579,-0.00159750,-0.06534351,-0.093360
 01,-0.06789470,-0.01112918,-0.03110704,-0.02670202,-0.00015839,-0.0001
 0529,-0.00024221,0.00021785,0.00011378,0.00010153,0.00019421,-0.000122
 36,-0.00046652,-0.00003662,0.00035484,0.00020291,0.07092897,0.11400808
 ,0.00024498,-0.00006921,-0.00015417,-0.00040793,0.00064891,0.00011603,
 -0.00002518,-0.00017661,0.00005342,0.00153166,0.00011014,0.00032971,0.
 00190743,-0.00002661,-0.00119640,0.01065863,0.00735168,0.01030919,-0.1
 0841895,-0.07049465,-0.16901407,0.00171905,-0.01075159,-0.00155935,0.0
 0017439,0.00003470,0.00028075,0.00000564,0.00007539,-0.00001574,-0.000
 69948,-0.00004921,0.00073013,-0.00096151,-0.00018327,0.00042010,0.1125
 4588,0.08425290,0.17681831,0.00003636,-0.00002348,0.00000644,-0.000001
 62,0.00005362,0.00000951,0.00000902,-0.00001581,-0.00002305,0.00023404
 ,0.00036194,-0.00041048,0.00144974,-0.00053885,0.00151265,0.00079744,-
 0.01761851,0.02701084,-0.05371137,0.00276722,-0.01121935,-0.00145732,0
 .01600338,-0.00760825,-0.00030174,0.00009990,-0.00059138,-0.00009545,-
 0.00006881,-0.00010570,-0.00554261,-0.00103070,0.00212890,0.00107066,0
 .00046705,-0.00058092,0.00077853,0.01008672,-0.01797910,0.05609715,0.0
 0000614,-0.00000395,0.00000581,-0.00002706,0.00002643,0.00003761,-0.00
 001676,-0.00002972,-0.00001577,0.00002831,0.00015247,-0.00019860,0.000
 46894,-0.00029173,0.00048053,-0.00117749,-0.00045860,0.00296035,0.0040
 9787,-0.12034523,0.11071109,0.01028325,-0.03546862,0.02083520,-0.00035
 018,-0.00016367,-0.00009622,0.00007815,0.00003295,0.00001290,0.0000594
 0,0.00095551,0.00028358,-0.00044851,0.00015529,0.00005132,-0.00058948,
 0.00943361,-0.01022006,-0.01084787,0.14530518,0.00023183,-0.00002859,-
 0.00011943,-0.00043299,0.00030515,0.00005533,0.00010217,-0.00005791,0.
 00002826,0.00040008,-0.00034952,0.00008808,-0.00119722,-0.00084338,0.0
 0062367,0.00020657,0.00673933,-0.01119435,-0.01117821,0.11565230,-0.23
 428225,0.00057886,-0.00801766,0.01426108,0.00055687,0.00042457,0.00036
 595,0.00011821,-0.00000049,-0.00001575,0.00265304,-0.00010508,0.000279
 08,0.00014145,-0.00011425,0.00012449,-0.00039650,0.01100767,-0.0171162
 0,0.00868144,-0.12515833,0.24595163,0.00003816,-0.00002720,-0.00003181
 ,-0.00007615,0.00015820,0.00003195,-0.00000797,-0.00005095,0.00000447,
 0.00027403,0.00005738,0.00001213,0.00010767,-0.00004068,0.00000818,0.0
 0011399,0.00330645,0.00020408,-0.01099589,-0.00431917,0.00434036,-0.43
 266467,-0.03450823,0.20562635,-0.00006194,0.00000710,-0.00001549,0.000
 09052,0.00012694,0.00006231,0.00024453,0.00001050,-0.00013503,-0.00045
 179,-0.00041868,0.00027564,0.00116545,-0.00117408,-0.00029550,0.000637
 17,-0.00156471,-0.00046560,0.44158690,-0.00004751,0.00004125,-0.000019
 33,-0.00008607,-0.00018494,0.00006663,0.00005438,0.00010161,0.00003118
 ,-0.00007520,0.00026024,0.00003152,-0.00036301,-0.00049895,-0.00024125
 ,0.00186560,-0.00676943,-0.00129064,0.03868672,-0.00049490,-0.01837770
 ,-0.08027073,-0.04990633,0.03577489,-0.00000560,0.00009551,0.00001796,
 0.00035439,0.00030438,0.00028991,-0.00027927,0.00005869,-0.00008261,0.
 00164402,0.00043264,-0.00071388,-0.00021905,0.00061249,-0.00050250,0.0
 0030420,0.00070008,0.00054620,0.03843713,0.05524765,-0.00013415,0.0000
 3829,0.00003119,0.00013403,-0.00023511,0.00002266,0.00002271,0.0000953
 9,0.00000641,-0.00022419,0.00023132,-0.00001065,-0.00024610,-0.0003191
 4,0.00002450,0.00005323,-0.00214360,-0.00039159,0.00692870,0.00256367,
 -0.00495307,0.20328706,0.01377012,-0.09893165,0.00000465,0.00003547,-0
 .00001210,0.00002288,0.00030276,0.00011075,-0.00032416,-0.00014493,0.0
 0032695,0.00056410,0.00009812,0.00035418,0.00036484,0.00092742,-0.0000
 0172,-0.00083156,0.00031058,0.00095041,-0.20962203,-0.01553036,0.10247
 372\\-0.00000252,-0.00000812,-0.00000600,0.00000281,0.00005680,-0.0000
 0667,-0.00002422,-0.00000038,-0.00000524,0.00000397,-0.00001098,-0.000
 00753,-0.00000967,-0.00002069,0.00005731,-0.00000402,-0.00004161,0.000
 02094,-0.00000330,-0.00000287,-0.00001487,-0.00000143,0.00000241,0.000
 00602,-0.00001218,-0.00002533,-0.00000701,0.00003339,0.00001596,-0.000
 02938,0.00000062,0.00000154,0.00000263,0.00001133,0.00003117,-0.000011
 82,0.00000124,0.00000400,0.00000464,0.00000159,-0.00000205,-0.00000520
 ,0.00000239,0.00000016,0.00000217\\\@
 The archive entry for this job was punched.


 ALL OUR THINKING ABOUT NATURE MUST NECESSARILY MOVE IN CIRCLES OR SPIRALS;
 FOR WE CAN ONLY UNDERSTAND NATURE IF WE THINK ABOUT HER, AND WE CAN ONLY
 THINK BECAUSE OUR BRAIN IS BUILT IN ACCORDANCE WITH NATURE'S LAWS.

                                             -- TIMOTHY FERRIS, "GALAXIES"
 Job cpu time:       0 days  0 hours 32 minutes 59.5 seconds.
 Elapsed time:       0 days  0 hours  4 minutes 46.1 seconds.
 File lengths (MBytes):  RWF=     95 Int=      0 D2E=      0 Chk=     12 Scr=      1
 Normal termination of Gaussian 16 at Thu Jun 29 13:17:55 2023.
