 Entering Gaussian System, Link 0=g16
 Initial command:
 /apps/gaussian/g16c01/g16/l1.exe "/jobfs/89715542.gadi-pbs/Gau-2138007.inp" -scrdir="/jobfs/89715542.gadi-pbs/"
 Entering Link 1 = /apps/gaussian/g16c01/g16/l1.exe PID=   2138008.
  
 Copyright (c) 1988-2019, Gaussian, Inc.  All Rights Reserved.
  
 This is part of the Gaussian(R) 16 program.  It is based on
 the Gaussian(R) 09 system (copyright 2009, Gaussian, Inc.),
 the Gaussian(R) 03 system (copyright 2003, Gaussian, Inc.),
 the Gaussian(R) 98 system (copyright 1998, Gaussian, Inc.),
 the Gaussian(R) 94 system (copyright 1995, Gaussian, Inc.),
 the Gaussian 92(TM) system (copyright 1992, Gaussian, Inc.),
 the Gaussian 90(TM) system (copyright 1990, Gaussian, Inc.),
 the Gaussian 88(TM) system (copyright 1988, Gaussian, Inc.),
 the Gaussian 86(TM) system (copyright 1986, Carnegie Mellon
 University), and the Gaussian 82(TM) system (copyright 1983,
 Carnegie Mellon University). Gaussian is a federally registered
 trademark of Gaussian, Inc.
  
 This software contains proprietary and confidential information,
 including trade secrets, belonging to Gaussian, Inc.
  
 This software is provided under written license and may be
 used, copied, transmitted, or stored only in accord with that
 written license.
  
 The following legend is applicable only to US Government
 contracts under FAR:
  
                    RESTRICTED RIGHTS LEGEND
  
 Use, reproduction and disclosure by the US Government is
 subject to restrictions as set forth in subparagraphs (a)
 and (c) of the Commercial Computer Software - Restricted
 Rights clause in FAR 52.227-19.
  
 Gaussian, Inc.
 340 Quinnipiac St., Bldg. 40, Wallingford CT 06492
  
  
 ---------------------------------------------------------------
 Warning -- This program may not be used in any manner that
 competes with the business of Gaussian, Inc. or will provide
 assistance to any competitor of Gaussian, Inc.  The licensee
 of this program is prohibited from giving any competitor of
 Gaussian, Inc. access to this program.  By using this program,
 the user acknowledges that Gaussian, Inc. is engaged in the
 business of creating and licensing software in the field of
 computational chemistry and represents and warrants to the
 licensee that it is not a competitor of Gaussian, Inc. and that
 it will not use this program in any manner prohibited above.
 ---------------------------------------------------------------
  

 Cite this work as:
 Gaussian 16, Revision C.01,
 M. J. Frisch, G. W. Trucks, H. B. Schlegel, G. E. Scuseria, 
 M. A. Robb, J. R. Cheeseman, G. Scalmani, V. Barone, 
 G. A. Petersson, H. Nakatsuji, X. Li, M. Caricato, A. V. Marenich, 
 J. Bloino, B. G. Janesko, R. Gomperts, B. Mennucci, H. P. Hratchian, 
 J. V. Ortiz, A. F. Izmaylov, J. L. Sonnenberg, D. Williams-Young, 
 F. Ding, F. Lipparini, F. Egidi, J. Goings, B. Peng, A. Petrone, 
 T. Henderson, D. Ranasinghe, V. G. Zakrzewski, J. Gao, N. Rega, 
 G. Zheng, W. Liang, M. Hada, M. Ehara, K. Toyota, R. Fukuda, 
 J. Hasegawa, M. Ishida, T. Nakajima, Y. Honda, O. Kitao, H. Nakai, 
 T. Vreven, K. Throssell, J. A. Montgomery, Jr., J. E. Peralta, 
 F. Ogliaro, M. J. Bearpark, J. J. Heyd, E. N. Brothers, K. N. Kudin, 
 V. N. Staroverov, T. A. Keith, R. Kobayashi, J. Normand, 
 K. Raghavachari, A. P. Rendell, J. C. Burant, S. S. Iyengar, 
 J. Tomasi, M. Cossi, J. M. Millam, M. Klene, C. Adamo, R. Cammi, 
 J. W. Ochterski, R. L. Martin, K. Morokuma, O. Farkas, 
 J. B. Foresman, and D. J. Fox, Gaussian, Inc., Wallingford CT, 2019.
 
 ******************************************
 Gaussian 16:  ES64L-G16RevC.01  3-Jul-2019
                 5-Jul-2023 
 ******************************************
 %nprocshared=8
 Will use up to    8 processors via shared memory.
 %mem=4000MB
 %chk=ZINC000306420048.chk
 ----------------------------------------------------------------------
 # opt=calcfc freq 6-311+g(d,p) scrf=(cpcm,solvent=water) m062x int(gri
 d=ultrafine)
 ----------------------------------------------------------------------
 1/10=4,18=20,19=15,26=6,38=1/1,3;
 2/9=110,12=2,17=6,18=5,40=1/2;
 3/5=4,6=6,7=111,11=2,25=1,30=1,70=2101,71=2,72=1,74=-55,75=-5,140=1/1,2,3;
 4//1;
 5/5=2,38=5,53=1/2;
 8/6=4,10=90,11=11/1;
 11/6=1,8=1,9=11,15=111,16=1/1,2,10;
 10/6=1,13=1/2;
 6/7=2,8=2,9=2,10=2,28=1/1;
 7/10=1,25=1/1,2,3,16;
 1/10=4,18=20,19=15,26=6/3(2);
 2/9=110/2;
 99//99;
 2/9=110/2;
 3/5=4,6=6,7=111,11=2,25=1,30=1,70=2105,71=1,72=1,74=-55,75=-5/1,2,3;
 4/5=5,16=3,69=1/1;
 5/5=2,38=5,53=1/2;
 7//1,2,3,16;
 1/18=20,19=15,26=6/3(-5);
 2/9=110/2;
 6/7=2,8=2,9=2,10=2,19=2,28=1/1;
 99/9=1/99;
 --------------------
 ZINC000306420048.mol
 --------------------
 Symbolic Z-matrix:
 Charge =  0 Multiplicity = 1
 C                    -4.1068    0.8925   -0.8296 
 N                    -2.6749    0.7501   -0.6164 
 C                    -2.0907   -0.4081   -0.0401 
 O                    -2.8241   -1.3543    0.3041 
 C                    -0.6435   -0.5157    0.1593 
 C                     0.0277   -1.5813    0.7035 
 C                     1.368    -1.2375    0.6909 
 C                     1.4613    0.016     0.1431 
 C                     2.7246    0.7347   -0.0443 
 N                     2.6756    2.0313   -0.6262 
 O                     3.8277    0.2736    0.2762 
 O                     0.255     0.3988   -0.1534 
 H                    -4.3088    1.8469   -1.2693 
 H                    -4.4486    0.1185   -1.4846 
 H                    -4.6163    0.8169    0.1083 
 H                    -2.4573    1.4766    0.0354 
 H                    -0.3989   -2.4937    1.0646 
 H                     2.1805   -1.8381    1.0431 
 H                     3.6061    2.3738   -0.756 
 H                     2.212     1.9823   -1.5109 
 

 GradGradGradGradGradGradGradGradGradGradGradGradGradGradGradGradGradGrad
 Berny optimization.
 Initialization pass.
                           ----------------------------
                           !    Initial Parameters    !
                           ! (Angstroms and Degrees)  !
 --------------------------                            --------------------------
 ! Name  Definition              Value          Derivative Info.                !
 --------------------------------------------------------------------------------
 ! R1    R(1,2)                  1.4547         calculate D2E/DX2 analytically  !
 ! R2    R(1,13)                 1.0701         calculate D2E/DX2 analytically  !
 ! R3    R(1,14)                 1.07           calculate D2E/DX2 analytically  !
 ! R4    R(1,15)                 1.07           calculate D2E/DX2 analytically  !
 ! R5    R(2,3)                  1.4195         calculate D2E/DX2 analytically  !
 ! R6    R(2,16)                 1.0            calculate D2E/DX2 analytically  !
 ! R7    R(3,4)                  1.2456         calculate D2E/DX2 analytically  !
 ! R8    R(3,5)                  1.4648         calculate D2E/DX2 analytically  !
 ! R9    R(5,6)                  1.3719         calculate D2E/DX2 analytically  !
 ! R10   R(5,12)                 1.3196         calculate D2E/DX2 analytically  !
 ! R11   R(6,7)                  1.3837         calculate D2E/DX2 analytically  !
 ! R12   R(6,17)                 1.07           calculate D2E/DX2 analytically  !
 ! R13   R(7,8)                  1.3711         calculate D2E/DX2 analytically  !
 ! R14   R(7,18)                 1.07           calculate D2E/DX2 analytically  !
 ! R15   R(8,9)                  1.4655         calculate D2E/DX2 analytically  !
 ! R16   R(8,12)                 1.2998         calculate D2E/DX2 analytically  !
 ! R17   R(9,10)                 1.422          calculate D2E/DX2 analytically  !
 ! R18   R(9,11)                 1.2378         calculate D2E/DX2 analytically  !
 ! R19   R(10,19)                1.0            calculate D2E/DX2 analytically  !
 ! R20   R(10,20)                1.0            calculate D2E/DX2 analytically  !
 ! A1    A(2,1,13)             109.4726         calculate D2E/DX2 analytically  !
 ! A2    A(2,1,14)             109.4717         calculate D2E/DX2 analytically  !
 ! A3    A(2,1,15)             109.4705         calculate D2E/DX2 analytically  !
 ! A4    A(13,1,14)            109.4712         calculate D2E/DX2 analytically  !
 ! A5    A(13,1,15)            109.4693         calculate D2E/DX2 analytically  !
 ! A6    A(14,1,15)            109.472          calculate D2E/DX2 analytically  !
 ! A7    A(1,2,3)              122.9908         calculate D2E/DX2 analytically  !
 ! A8    A(1,2,16)             103.8042         calculate D2E/DX2 analytically  !
 ! A9    A(3,2,16)             103.8038         calculate D2E/DX2 analytically  !
 ! A10   A(2,3,4)              119.3187         calculate D2E/DX2 analytically  !
 ! A11   A(2,3,5)              121.4543         calculate D2E/DX2 analytically  !
 ! A12   A(4,3,5)              119.227          calculate D2E/DX2 analytically  !
 ! A13   A(3,5,6)              126.4702         calculate D2E/DX2 analytically  !
 ! A14   A(3,5,12)             126.1231         calculate D2E/DX2 analytically  !
 ! A15   A(6,5,12)             107.4067         calculate D2E/DX2 analytically  !
 ! A16   A(5,6,7)              106.0983         calculate D2E/DX2 analytically  !
 ! A17   A(5,6,17)             126.9516         calculate D2E/DX2 analytically  !
 ! A18   A(7,6,17)             126.95           calculate D2E/DX2 analytically  !
 ! A19   A(6,7,8)              107.2585         calculate D2E/DX2 analytically  !
 ! A20   A(6,7,18)             126.373          calculate D2E/DX2 analytically  !
 ! A21   A(8,7,18)             126.3685         calculate D2E/DX2 analytically  !
 ! A22   A(7,8,9)              123.924          calculate D2E/DX2 analytically  !
 ! A23   A(7,8,12)             107.2901         calculate D2E/DX2 analytically  !
 ! A24   A(9,8,12)             128.7858         calculate D2E/DX2 analytically  !
 ! A25   A(8,9,10)             118.0207         calculate D2E/DX2 analytically  !
 ! A26   A(8,9,11)             123.5342         calculate D2E/DX2 analytically  !
 ! A27   A(10,9,11)            118.4451         calculate D2E/DX2 analytically  !
 ! A28   A(9,10,19)            109.4718         calculate D2E/DX2 analytically  !
 ! A29   A(9,10,20)            109.4701         calculate D2E/DX2 analytically  !
 ! A30   A(19,10,20)           109.4709         calculate D2E/DX2 analytically  !
 ! A31   A(5,12,8)             111.9463         calculate D2E/DX2 analytically  !
 ! D1    D(13,1,2,3)           179.6926         calculate D2E/DX2 analytically  !
 ! D2    D(13,1,2,16)           62.7928         calculate D2E/DX2 analytically  !
 ! D3    D(14,1,2,3)           -60.3062         calculate D2E/DX2 analytically  !
 ! D4    D(14,1,2,16)         -177.206          calculate D2E/DX2 analytically  !
 ! D5    D(15,1,2,3)            59.6946         calculate D2E/DX2 analytically  !
 ! D6    D(15,1,2,16)          -57.2053         calculate D2E/DX2 analytically  !
 ! D7    D(1,2,3,4)             -0.0046         calculate D2E/DX2 analytically  !
 ! D8    D(1,2,3,5)           -179.9968         calculate D2E/DX2 analytically  !
 ! D9    D(16,2,3,4)           116.8955         calculate D2E/DX2 analytically  !
 ! D10   D(16,2,3,5)           -63.0968         calculate D2E/DX2 analytically  !
 ! D11   D(2,3,5,6)           -179.9988         calculate D2E/DX2 analytically  !
 ! D12   D(2,3,5,12)            -0.0024         calculate D2E/DX2 analytically  !
 ! D13   D(4,3,5,6)              0.009          calculate D2E/DX2 analytically  !
 ! D14   D(4,3,5,12)          -179.9947         calculate D2E/DX2 analytically  !
 ! D15   D(3,5,6,7)            179.998          calculate D2E/DX2 analytically  !
 ! D16   D(3,5,6,17)             0.0005         calculate D2E/DX2 analytically  !
 ! D17   D(12,5,6,7)             0.0011         calculate D2E/DX2 analytically  !
 ! D18   D(12,5,6,17)         -179.9965         calculate D2E/DX2 analytically  !
 ! D19   D(3,5,12,8)          -179.9962         calculate D2E/DX2 analytically  !
 ! D20   D(6,5,12,8)             0.0008         calculate D2E/DX2 analytically  !
 ! D21   D(5,6,7,8)             -0.0024         calculate D2E/DX2 analytically  !
 ! D22   D(5,6,7,18)           179.9987         calculate D2E/DX2 analytically  !
 ! D23   D(17,6,7,8)           179.9951         calculate D2E/DX2 analytically  !
 ! D24   D(17,6,7,18)           -0.0038         calculate D2E/DX2 analytically  !
 ! D25   D(6,7,8,9)            179.9991         calculate D2E/DX2 analytically  !
 ! D26   D(6,7,8,12)             0.0029         calculate D2E/DX2 analytically  !
 ! D27   D(18,7,8,9)            -0.002          calculate D2E/DX2 analytically  !
 ! D28   D(18,7,8,12)         -179.9982         calculate D2E/DX2 analytically  !
 ! D29   D(7,8,9,10)           179.9988         calculate D2E/DX2 analytically  !
 ! D30   D(7,8,9,11)             0.0057         calculate D2E/DX2 analytically  !
 ! D31   D(12,8,9,10)           -0.0058         calculate D2E/DX2 analytically  !
 ! D32   D(12,8,9,11)         -179.999          calculate D2E/DX2 analytically  !
 ! D33   D(7,8,12,5)            -0.0023         calculate D2E/DX2 analytically  !
 ! D34   D(9,8,12,5)          -179.9983         calculate D2E/DX2 analytically  !
 ! D35   D(8,9,10,19)         -175.8568         calculate D2E/DX2 analytically  !
 ! D36   D(8,9,10,20)          -55.8575         calculate D2E/DX2 analytically  !
 ! D37   D(11,9,10,19)           4.1368         calculate D2E/DX2 analytically  !
 ! D38   D(11,9,10,20)         124.136          calculate D2E/DX2 analytically  !
 --------------------------------------------------------------------------------
 Trust Radius=3.00D-01 FncErr=5.00D-06 GrdErr=5.00D-06 EigMax=2.50D+02 EigMin=1.00D-04
 Number of steps in this run=     99 maximum allowed number of steps=    120.
 GradGradGradGradGradGradGradGradGradGradGradGradGradGradGradGradGradGrad

                          Input orientation:                          
 ---------------------------------------------------------------------
 Center     Atomic      Atomic             Coordinates (Angstroms)
 Number     Number       Type             X           Y           Z
 ---------------------------------------------------------------------
      1          6           0       -4.106800    0.892500   -0.829600
      2          7           0       -2.674900    0.750100   -0.616400
      3          6           0       -2.090700   -0.408100   -0.040100
      4          8           0       -2.824100   -1.354300    0.304100
      5          6           0       -0.643500   -0.515700    0.159300
      6          6           0        0.027700   -1.581300    0.703500
      7          6           0        1.368000   -1.237500    0.690900
      8          6           0        1.461300    0.016000    0.143100
      9          6           0        2.724600    0.734700   -0.044300
     10          7           0        2.675600    2.031300   -0.626200
     11          8           0        3.827700    0.273600    0.276200
     12          8           0        0.255000    0.398800   -0.153400
     13          1           0       -4.308800    1.846900   -1.269300
     14          1           0       -4.448600    0.118500   -1.484600
     15          1           0       -4.616300    0.816900    0.108300
     16          1           0       -2.457300    1.476600    0.035400
     17          1           0       -0.398900   -2.493700    1.064600
     18          1           0        2.180500   -1.838100    1.043100
     19          1           0        3.606100    2.373800   -0.756000
     20          1           0        2.212000    1.982300   -1.510900
 ---------------------------------------------------------------------
                    Distance matrix (angstroms):
                    1          2          3          4          5
     1  C    0.000000
     2  N    1.454672   0.000000
     3  C    2.525773   1.419450   0.000000
     4  O    2.824660   2.301756   1.245650   0.000000
     5  C    3.867221   2.516058   1.464830   2.340776   0.000000
     6  C    5.056102   3.805471   2.533171   2.888566   1.371921
     7  C    6.068134   4.690909   3.631098   4.211527   2.202209
     8  C    5.719977   4.268945   3.581917   4.502032   2.170979
     9  C    6.878199   5.429745   4.949053   5.939139   3.598479
    10  N    6.880348   5.501765   5.386260   6.524910   4.256835
    11  O    8.035056   6.580851   5.965921   6.848159   4.541838
    12  O    4.441428   2.986988   2.483190   3.572607   1.319619
    13  H    1.070056   2.073374   3.393512   3.863626   4.588813
    14  H    1.070013   2.073331   2.814885   2.829768   4.193257
    15  H    1.070029   2.073327   2.810926   2.822132   4.190652
    16  H    1.951986   0.999998   1.921507   2.867183   2.697125
    17  H    5.366830   4.304437   2.903838   2.785352   2.189037
    18  H    7.105865   5.746967   4.632642   5.081949   3.241114
    19  H    7.854202   6.488979   6.380048   7.507997   5.219778
    20  H    6.448183   5.118617   5.137168   6.307886   4.145293
                    6          7          8          9         10
     6  C    0.000000
     7  C    1.383749   0.000000
     8  C    2.218248   1.371150   0.000000
     9  C    3.632675   2.504088   1.465461   0.000000
    10  N    4.672297   3.758939   2.475436   1.422034   0.000000
    11  O    4.250087   2.916423   2.384098   1.237806   2.287175
    12  O    2.169502   2.151532   1.299849   2.494726   2.957685
    13  H    5.869389   6.751442   6.216198   7.225395   7.016368
    14  H    5.264443   6.356443   6.130810   7.342272   7.426297
    15  H    5.260453   6.353883   6.130243   7.342946   7.428732
    16  H    3.996540   4.735920   4.183345   5.235347   5.205004
    17  H    1.069979   2.199915   3.257008   4.626930   5.725992
    18  H    2.194498   1.070010   2.182873   2.845660   4.243105
    19  H    5.529729   4.488218   3.311762   1.992538   0.999992
    20  H    4.730114   3.990911   2.676864   1.992531   1.000010
                   11         12         13         14         15
    11  O    0.000000
    12  O    3.600613   0.000000
    13  H    8.430093   4.916350   0.000000
    14  H    8.462955   4.896378   1.747359   0.000000
    15  H    8.463126   4.896209   1.747352   1.747345   0.000000
    16  H    6.403625   2.924700   2.295085   2.849581   2.258716
    17  H    5.113088   3.205880   6.290884   5.451796   5.446195
    18  H    2.785800   3.184789   7.812646   7.359519   7.356587
    19  H    2.350613   3.936194   7.949009   8.396156   8.413015
    20  H    2.953620   2.860092   6.526679   6.916504   7.113765
                   16         17         18         19         20
    16  H    0.000000
    17  H    4.589068   0.000000
    18  H    5.788945   2.661499   0.000000
    19  H    6.180299   6.561034   4.796790   0.000000
    20  H    4.944607   5.786586   4.595581   1.632991   0.000000
 Stoichiometry    C7H8N2O3
 Framework group  C1[X(C7H8N2O3)]
 Deg. of freedom    54
 Full point group                 C1      NOp   1
 Largest Abelian subgroup         C1      NOp   1
 Largest concise Abelian subgroup C1      NOp   1
                         Standard orientation:                         
 ---------------------------------------------------------------------
 Center     Atomic      Atomic             Coordinates (Angstroms)
 Number     Number       Type             X           Y           Z
 ---------------------------------------------------------------------
      1          6           0        3.987556   -1.321807   -0.021247
      2          7           0        2.564913   -1.018350   -0.012855
      3          6           0        2.057351    0.307247   -0.016416
      4          8           0        2.853504    1.265199   -0.027099
      5          6           0        0.617097    0.574300   -0.007634
      6          6           0        0.016393    1.807716   -0.010059
      7          6           0       -1.346843    1.570589    0.000866
      8          6           0       -1.523175    0.210851    0.009414
      9          6           0       -2.834233   -0.443778    0.022229
     10          7           0       -2.871099   -1.865312    0.030094
     11          8           0       -3.906925    0.173860    0.026423
     12          8           0       -0.342082   -0.331919    0.004028
     13          1           0        4.126037   -2.382815   -0.011097
     14          1           0        4.434435   -0.912203   -0.902979
     15          1           0        4.448680   -0.893658    0.844210
     16          1           0        2.246027   -1.393602    0.857485
     17          1           0        0.503479    2.760358   -0.018694
     18          1           0       -2.119665    2.310633    0.002347
     19          1           0       -3.820220   -2.174485   -0.029630
     20          1           0       -2.356312   -2.216425   -0.752041
 ---------------------------------------------------------------------
 Rotational constants (GHZ):           2.2604768           0.4741753           0.3937239
 Standard basis: 6-311+G(d,p) (5D, 7F)
 There are   324 symmetry adapted cartesian basis functions of A   symmetry.
 There are   312 symmetry adapted basis functions of A   symmetry.
   312 basis functions,   496 primitive gaussians,   324 cartesian basis functions
    44 alpha electrons       44 beta electrons
       nuclear repulsion energy       672.6621159409 Hartrees.
 NAtoms=   20 NActive=   20 NUniq=   20 SFac= 1.00D+00 NAtFMM=   60 NAOKFM=F Big=F
 Integral buffers will be    131072 words long.
 Raffenetti 2 integral format.
 Two-electron integral symmetry is turned on.
 Force inversion solution in PCM.
 ------------------------------------------------------------------------------
 Polarizable Continuum Model (PCM)
 =================================
 Model                : C-PCM.
 Atomic radii         : UFF (Universal Force Field).
 Polarization charges : Total charges.
 Charge compensation  : None.
 Solution method      : Matrix inversion.
 Cavity type          : Scaled VdW (van der Waals Surface) (Alpha=1.100).
 Cavity algorithm     : GePol (No added spheres)
                        Default sphere list used, NSphG=   20.
                        Lebedev-Laikov grids with approx.  5.0 points / Ang**2.
                        Smoothing algorithm: York/Karplus (Gamma=1.0000).
                        Polarization charges: spherical gaussians, with
                                              point-specific exponents (IZeta= 3).
                        Self-potential: point-specific (ISelfS= 7).
                        Self-field    : sphere-specific E.n sum rule (ISelfD= 2).
 1st derivatives      : Analytical E(r).r(x)/FMM algorithm (CHGder, D1EAlg=3).
                        Cavity 1st derivative terms included.
 2nd derivatives      : Analytical E(r).r(xy)/FMM algorithm (CHGder, D2EAlg=3).
                        Cavity 2nd derivative terms included.
 Solvent              : Water, Eps=  78.355300 Eps(inf)=   1.777849
 ------------------------------------------------------------------------------
 Spheres list:
 ISph  on   Nord     Re0    Alpha      Xe            Ye            Ze
    1   C      1    1.9255  1.100      3.987556     -1.321807     -0.021247
    2   N      2    1.8300  1.100      2.564913     -1.018350     -0.012855
    3   C      3    1.9255  1.100      2.057351      0.307247     -0.016416
    4   O      4    1.7500  1.100      2.853504      1.265199     -0.027099
    5   C      5    1.9255  1.100      0.617097      0.574300     -0.007634
    6   C      6    1.9255  1.100      0.016393      1.807716     -0.010059
    7   C      7    1.9255  1.100     -1.346843      1.570589      0.000866
    8   C      8    1.9255  1.100     -1.523175      0.210851      0.009414
    9   C      9    1.9255  1.100     -2.834233     -0.443778      0.022229
   10   N     10    1.8300  1.100     -2.871099     -1.865312      0.030094
   11   O     11    1.7500  1.100     -3.906925      0.173860      0.026423
   12   O     12    1.7500  1.100     -0.342082     -0.331919      0.004028
   13   H     13    1.4430  1.100      4.126037     -2.382815     -0.011097
   14   H     14    1.4430  1.100      4.434435     -0.912203     -0.902979
   15   H     15    1.4430  1.100      4.448680     -0.893658      0.844210
   16   H     16    1.4430  1.100      2.246027     -1.393602      0.857485
   17   H     17    1.4430  1.100      0.503479      2.760358     -0.018694
   18   H     18    1.4430  1.100     -2.119665      2.310633      0.002347
   19   H     19    1.4430  1.100     -3.820220     -2.174485     -0.029630
   20   H     20    1.4430  1.100     -2.356312     -2.216425     -0.752041
 ------------------------------------------------------------------------------
 One-electron integrals computed using PRISM.
 NBasis=   312 RedAO= T EigKep=  2.03D-06  NBF=   312
 NBsUse=   311 1.00D-06 EigRej=  9.86D-07 NBFU=   311
 ExpMin= 4.38D-02 ExpMax= 8.59D+03 ExpMxC= 1.30D+03 IAcc=3 IRadAn=         5 AccDes= 0.00D+00
 Harris functional with IExCor= 1009 and IRadAn=       5 diagonalized for initial guess.
 HarFok:  IExCor= 1009 AccDes= 0.00D+00 IRadAn=         5 IDoV= 1 UseB2=F ITyADJ=14
 ICtDFT=  3500011 ScaDFX=  1.000000  1.000000  1.000000  1.000000
 FoFCou: FMM=F IPFlag=           0 FMFlag=      100000 FMFlg1=           0
         NFxFlg=           0 DoJE=T BraDBF=F KetDBF=T FulRan=T
         wScrn=  0.000000 ICntrl=       500 IOpCl=  0 I1Cent=   200000004 NGrid=           0
         NMat0=    1 NMatS0=      1 NMatT0=    0 NMatD0=    1 NMtDS0=    0 NMtDT0=    0
 Petite list used in FoFCou.
 Requested convergence on RMS density matrix=1.00D-08 within 128 cycles.
 Requested convergence on MAX density matrix=1.00D-06.
 Requested convergence on             energy=1.00D-06.
 No special actions if energy rises.
 Inv3:  Mode=1 IEnd=     9345675.
 Iteration    1 A*A^-1 deviation from unit magnitude is 6.00D-15 for   1753.
 Iteration    1 A*A^-1 deviation from orthogonality  is 2.74D-15 for   1748    191.
 Iteration    1 A^-1*A deviation from unit magnitude is 6.00D-15 for   1753.
 Iteration    1 A^-1*A deviation from orthogonality  is 1.95D-15 for   1761   1158.
 Error on total polarization charges =  0.01258
 SCF Done:  E(RM062X) =  -606.657961225     A.U. after   15 cycles
            NFock= 15  Conv=0.87D-08     -V/T= 2.0032
 DoSCS=F DFT=T ScalE2(SS,OS)=  1.000000  1.000000
 Range of M.O.s used for correlation:     1   311
 NBasis=   312 NAE=    44 NBE=    44 NFC=     0 NFV=     0
 NROrb=    311 NOA=    44 NOB=    44 NVA=   267 NVB=   267

 **** Warning!!: The largest alpha MO coefficient is  0.11059832D+03

 Symmetrizing basis deriv contribution to polar:
 IMax=3 JMax=2 DiffMx= 0.00D+00
 G2DrvN: will do    21 centers at a time, making    1 passes.
 Calling FoFCou, ICntrl=  3107 FMM=F I1Cent=   0 AccDes= 0.00D+00.
 NEqPCM:  Using equilibrium solvation (IEInf=0, Eps=  78.3553, EpsInf=   1.7778)
 G2PCM: DoFxE=T DoFxN=T DoGrad=T DoDP/DQ/DG/TGxP=FFFF NFrqRd=   0 IEInf=0 SqF1=F DoCFld=F IF1Alg=4.
 End of G2Drv F.D. properties file   721 does not exist.
 End of G2Drv F.D. properties file   722 does not exist.
 End of G2Drv F.D. properties file   788 does not exist.
          IDoAtm=11111111111111111111
 NEqPCM:  Using equilibrium solvation (IEInf=0, Eps=  78.3553, EpsInf=   1.7778)
          Differentiating once with respect to nuclear coordinates.
 CalDSu exits because no D1Ps are significant.
          There are    63 degrees of freedom in the 1st order CPHF.  IDoFFX=6 NUNeed=     0.
     57 vectors produced by pass  0 Test12= 1.86D-14 1.59D-09 XBig12= 1.86D-01 1.39D-01.
 AX will form    57 AO Fock derivatives at one time.
     57 vectors produced by pass  1 Test12= 1.86D-14 1.59D-09 XBig12= 2.18D-02 4.33D-02.
     57 vectors produced by pass  2 Test12= 1.86D-14 1.59D-09 XBig12= 5.90D-04 3.75D-03.
     57 vectors produced by pass  3 Test12= 1.86D-14 1.59D-09 XBig12= 5.94D-06 2.73D-04.
     57 vectors produced by pass  4 Test12= 1.86D-14 1.59D-09 XBig12= 4.28D-08 1.72D-05.
     57 vectors produced by pass  5 Test12= 1.86D-14 1.59D-09 XBig12= 2.01D-10 1.08D-06.
     44 vectors produced by pass  6 Test12= 1.86D-14 1.59D-09 XBig12= 8.20D-13 6.49D-08.
     16 vectors produced by pass  7 Test12= 1.86D-14 1.59D-09 XBig12= 3.14D-15 4.48D-09.
 InvSVY:  IOpt=1 It=  1 EMax= 6.11D-16
 Solved reduced A of dimension   402 with    63 vectors.
 End of Minotr F.D. properties file   721 does not exist.
 End of Minotr F.D. properties file   722 does not exist.
 End of Minotr F.D. properties file   788 does not exist.

 **********************************************************************

            Population analysis using the SCF Density.

 **********************************************************************

 Orbital symmetries:
       Occupied  (A) (A) (A) (A) (A) (A) (A) (A) (A) (A) (A) (A)
                 (A) (A) (A) (A) (A) (A) (A) (A) (A) (A) (A) (A)
                 (A) (A) (A) (A) (A) (A) (A) (A) (A) (A) (A) (A)
                 (A) (A) (A) (A) (A) (A) (A) (A)
       Virtual   (A) (A) (A) (A) (A) (A) (A) (A) (A) (A) (A) (A)
                 (A) (A) (A) (A) (A) (A) (A) (A) (A) (A) (A) (A)
                 (A) (A) (A) (A) (A) (A) (A) (A) (A) (A) (A) (A)
                 (A) (A) (A) (A) (A) (A) (A) (A) (A) (A) (A) (A)
                 (A) (A) (A) (A) (A) (A) (A) (A) (A) (A) (A) (A)
                 (A) (A) (A) (A) (A) (A) (A) (A) (A) (A) (A) (A)
                 (A) (A) (A) (A) (A) (A) (A) (A) (A) (A) (A) (A)
                 (A) (A) (A) (A) (A) (A) (A) (A) (A) (A) (A) (A)
                 (A) (A) (A) (A) (A) (A) (A) (A) (A) (A) (A) (A)
                 (A) (A) (A) (A) (A) (A) (A) (A) (A) (A) (A) (A)
                 (A) (A) (A) (A) (A) (A) (A) (A) (A) (A) (A) (A)
                 (A) (A) (A) (A) (A) (A) (A) (A) (A) (A) (A) (A)
                 (A) (A) (A) (A) (A) (A) (A) (A) (A) (A) (A) (A)
                 (A) (A) (A) (A) (A) (A) (A) (A) (A) (A) (A) (A)
                 (A) (A) (A) (A) (A) (A) (A) (A) (A) (A) (A) (A)
                 (A) (A) (A) (A) (A) (A) (A) (A) (A) (A) (A) (A)
                 (A) (A) (A) (A) (A) (A) (A) (A) (A) (A) (A) (A)
                 (A) (A) (A) (A) (A) (A) (A) (A) (A) (A) (A) (A)
                 (A) (A) (A) (A) (A) (A) (A) (A) (A) (A) (A) (A)
                 (A) (A) (A) (A) (A) (A) (A) (A) (A) (A) (A) (A)
                 (A) (A) (A) (A) (A) (A) (A) (A) (A) (A) (A) (A)
                 (A) (A) (A) (A) (A) (A) (A) (A) (A) (A) (A) (A)
                 (A) (A) (A)
 The electronic state is 1-A.
 Alpha  occ. eigenvalues --  -19.73719 -19.62991 -19.62709 -14.77421 -14.77021
 Alpha  occ. eigenvalues --  -10.68804 -10.68542 -10.63477 -10.63202 -10.56563
 Alpha  occ. eigenvalues --  -10.56331 -10.56189  -1.31523  -1.18647  -1.18094
 Alpha  occ. eigenvalues --   -1.03762  -1.02049  -0.94111  -0.92028  -0.81831
 Alpha  occ. eigenvalues --   -0.76447  -0.72707  -0.68810  -0.67148  -0.64039
 Alpha  occ. eigenvalues --   -0.62084  -0.60139  -0.58193  -0.55760  -0.54737
 Alpha  occ. eigenvalues --   -0.53690  -0.51277  -0.50224  -0.49553  -0.48873
 Alpha  occ. eigenvalues --   -0.47374  -0.46919  -0.45280  -0.38937  -0.37801
 Alpha  occ. eigenvalues --   -0.37287  -0.35452  -0.33633  -0.31585
 Alpha virt. eigenvalues --   -0.05906   0.00511   0.00703   0.02033   0.02706
 Alpha virt. eigenvalues --    0.03677   0.03998   0.04471   0.05634   0.05642
 Alpha virt. eigenvalues --    0.06047   0.07347   0.07479   0.08259   0.08816
 Alpha virt. eigenvalues --    0.09910   0.10431   0.10661   0.11540   0.12024
 Alpha virt. eigenvalues --    0.12745   0.13432   0.14396   0.15196   0.15625
 Alpha virt. eigenvalues --    0.16068   0.16793   0.17941   0.18228   0.18830
 Alpha virt. eigenvalues --    0.19090   0.19890   0.20469   0.20943   0.21453
 Alpha virt. eigenvalues --    0.21692   0.22199   0.23062   0.23255   0.23915
 Alpha virt. eigenvalues --    0.24358   0.24641   0.25646   0.26322   0.26922
 Alpha virt. eigenvalues --    0.27556   0.28365   0.28611   0.28955   0.29680
 Alpha virt. eigenvalues --    0.29797   0.30247   0.30887   0.31407   0.32115
 Alpha virt. eigenvalues --    0.33249   0.33687   0.34786   0.34936   0.35496
 Alpha virt. eigenvalues --    0.36627   0.38269   0.39294   0.40341   0.43254
 Alpha virt. eigenvalues --    0.45142   0.46235   0.46984   0.48234   0.51358
 Alpha virt. eigenvalues --    0.51564   0.54268   0.54868   0.58018   0.58958
 Alpha virt. eigenvalues --    0.59338   0.61149   0.61895   0.62641   0.63039
 Alpha virt. eigenvalues --    0.63086   0.65169   0.65307   0.66870   0.68507
 Alpha virt. eigenvalues --    0.70275   0.70646   0.70988   0.72197   0.73758
 Alpha virt. eigenvalues --    0.75110   0.77370   0.78801   0.79301   0.81977
 Alpha virt. eigenvalues --    0.83404   0.84104   0.84846   0.85536   0.86163
 Alpha virt. eigenvalues --    0.88132   0.88425   0.89865   0.90552   0.91824
 Alpha virt. eigenvalues --    0.93927   0.96463   0.99249   1.01239   1.01833
 Alpha virt. eigenvalues --    1.03507   1.06141   1.09482   1.10188   1.10996
 Alpha virt. eigenvalues --    1.13879   1.14836   1.15630   1.17767   1.19255
 Alpha virt. eigenvalues --    1.19601   1.21799   1.22350   1.23537   1.25343
 Alpha virt. eigenvalues --    1.27543   1.27919   1.28781   1.31789   1.33035
 Alpha virt. eigenvalues --    1.34530   1.38565   1.41944   1.46342   1.49789
 Alpha virt. eigenvalues --    1.51221   1.56083   1.57289   1.57808   1.58469
 Alpha virt. eigenvalues --    1.60545   1.61311   1.63110   1.65214   1.66639
 Alpha virt. eigenvalues --    1.68514   1.69949   1.70810   1.72220   1.73041
 Alpha virt. eigenvalues --    1.74492   1.78334   1.79409   1.79826   1.80647
 Alpha virt. eigenvalues --    1.81192   1.83639   1.84367   1.86883   1.88135
 Alpha virt. eigenvalues --    1.89779   1.92220   1.97712   1.98314   2.00352
 Alpha virt. eigenvalues --    2.01767   2.03416   2.03659   2.04763   2.05745
 Alpha virt. eigenvalues --    2.12286   2.14471   2.16617   2.18421   2.21093
 Alpha virt. eigenvalues --    2.26695   2.27516   2.28936   2.41702   2.44880
 Alpha virt. eigenvalues --    2.46833   2.50120   2.52270   2.53368   2.54344
 Alpha virt. eigenvalues --    2.58278   2.60316   2.62624   2.62929   2.64282
 Alpha virt. eigenvalues --    2.64939   2.68757   2.70943   2.74663   2.76216
 Alpha virt. eigenvalues --    2.77089   2.79925   2.80877   2.81456   2.84331
 Alpha virt. eigenvalues --    2.85238   2.87732   2.91285   2.92639   2.95254
 Alpha virt. eigenvalues --    2.96404   2.97827   2.98157   3.01241   3.02626
 Alpha virt. eigenvalues --    3.04619   3.11509   3.15044   3.17907   3.19301
 Alpha virt. eigenvalues --    3.20525   3.22590   3.28485   3.32660   3.36401
 Alpha virt. eigenvalues --    3.37698   3.38351   3.39501   3.41062   3.44358
 Alpha virt. eigenvalues --    3.55903   3.57970   3.61963   3.65732   3.66887
 Alpha virt. eigenvalues --    3.70126   3.85376   3.87903   3.89852   3.94887
 Alpha virt. eigenvalues --    4.13254   4.15984   4.17328   4.21684   4.25582
 Alpha virt. eigenvalues --    4.34413   4.47414   4.78607   4.85386   4.94092
 Alpha virt. eigenvalues --    5.02508   5.06930   5.14633   5.15309   5.29229
 Alpha virt. eigenvalues --    5.32935   5.55053   5.81640   5.82141   6.07699
 Alpha virt. eigenvalues --   23.76599  23.87301  23.91032  23.95285  24.06173
 Alpha virt. eigenvalues --   24.15267  24.29456  35.66927  35.69556  50.03388
 Alpha virt. eigenvalues --   50.09875  50.11164
          Condensed to atoms (all electrons):
               1          2          3          4          5          6
     1  C    5.188379   0.360453  -0.074460  -0.041277  -0.348140   0.036219
     2  N    0.360453   7.172528   0.277072  -0.243155  -0.626434   0.040456
     3  C   -0.074460   0.277072  10.118408   0.635961  -5.914770   2.318546
     4  O   -0.041277  -0.243155   0.635961   8.205376  -0.304994   0.103703
     5  C   -0.348140  -0.626434  -5.914770  -0.304994  14.692184  -2.421644
     6  C    0.036219   0.040456   2.318546   0.103703  -2.421644   7.693728
     7  C   -0.019137   0.017060  -1.625279   0.000923   1.548693  -1.535162
     8  C    0.007636  -0.022934   0.563586  -0.002150  -0.970439   0.225857
     9  C    0.006692   0.005302   0.224241  -0.002458  -0.424071  -0.636480
    10  N    0.000110   0.000332   0.011741   0.000107   0.003336   0.079533
    11  O    0.000024   0.000187   0.000984  -0.000018  -0.008611   0.021629
    12  O    0.002041   0.053160  -0.156096   0.012460   0.176687  -0.074875
    13  H    0.401537  -0.051630   0.005861   0.002272   0.025396   0.000553
    14  H    0.420218  -0.036336  -0.004784  -0.001108   0.006091  -0.001652
    15  H    0.421055  -0.067707   0.020068   0.004642  -0.009308  -0.001636
    16  H   -0.049500   0.340873   0.025925   0.011388  -0.021169   0.028610
    17  H   -0.000586  -0.001781  -0.058494   0.000539   0.044869   0.330340
    18  H   -0.000007  -0.000025   0.012907  -0.000013  -0.001797   0.000463
    19  H    0.000001   0.000007  -0.000006   0.000000   0.001624   0.001159
    20  H   -0.000024   0.000066  -0.004797  -0.000003  -0.019059  -0.013827
               7          8          9         10         11         12
     1  C   -0.019137   0.007636   0.006692   0.000110   0.000024   0.002041
     2  N    0.017060  -0.022934   0.005302   0.000332   0.000187   0.053160
     3  C   -1.625279   0.563586   0.224241   0.011741   0.000984  -0.156096
     4  O    0.000923  -0.002150  -0.002458   0.000107  -0.000018   0.012460
     5  C    1.548693  -0.970439  -0.424071   0.003336  -0.008611   0.176687
     6  C   -1.535162   0.225857  -0.636480   0.079533   0.021629  -0.074875
     7  C    7.450577  -0.650423   0.751366  -0.072460   0.044991  -0.082085
     8  C   -0.650423   9.229952  -2.623037   0.012281  -0.295591   0.141114
     9  C    0.751366  -2.623037   8.542276   0.020366   0.594614  -0.222240
    10  N   -0.072460   0.012281   0.020366   6.780422  -0.171603   0.028630
    11  O    0.044991  -0.295591   0.594614  -0.171603   8.196223   0.009409
    12  O   -0.082085   0.141114  -0.222240   0.028630   0.009409   8.090710
    13  H    0.000816  -0.001012  -0.000091   0.000000  -0.000000  -0.000103
    14  H    0.000000   0.000013  -0.000057   0.000001   0.000000   0.000093
    15  H   -0.000843   0.000995  -0.000020   0.000001   0.000000   0.000452
    16  H   -0.006322  -0.015730  -0.003987   0.000051  -0.000003   0.004030
    17  H    0.019580   0.006720   0.009720   0.000021  -0.000001   0.010973
    18  H    0.345411   0.009379  -0.016199  -0.001614  -0.000567   0.010945
    19  H   -0.001756   0.060937  -0.062636   0.368264  -0.002046  -0.000489
    20  H    0.034217  -0.074209   0.079611   0.353278   0.010180  -0.000538
              13         14         15         16         17         18
     1  C    0.401537   0.420218   0.421055  -0.049500  -0.000586  -0.000007
     2  N   -0.051630  -0.036336  -0.067707   0.340873  -0.001781  -0.000025
     3  C    0.005861  -0.004784   0.020068   0.025925  -0.058494   0.012907
     4  O    0.002272  -0.001108   0.004642   0.011388   0.000539  -0.000013
     5  C    0.025396   0.006091  -0.009308  -0.021169   0.044869  -0.001797
     6  C    0.000553  -0.001652  -0.001636   0.028610   0.330340   0.000463
     7  C    0.000816   0.000000  -0.000843  -0.006322   0.019580   0.345411
     8  C   -0.001012   0.000013   0.000995  -0.015730   0.006720   0.009379
     9  C   -0.000091  -0.000057  -0.000020  -0.003987   0.009720  -0.016199
    10  N    0.000000   0.000001   0.000001   0.000051   0.000021  -0.001614
    11  O   -0.000000   0.000000   0.000000  -0.000003  -0.000001  -0.000567
    12  O   -0.000103   0.000093   0.000452   0.004030   0.010973   0.010945
    13  H    0.488395  -0.018783  -0.030251  -0.006502  -0.000001   0.000000
    14  H   -0.018783   0.485413  -0.030243   0.006241   0.000000  -0.000000
    15  H   -0.030251  -0.030243   0.519329  -0.004290   0.000006   0.000000
    16  H   -0.006502   0.006241  -0.004290   0.412519  -0.000014   0.000001
    17  H   -0.000001   0.000000   0.000006  -0.000014   0.441567  -0.003465
    18  H    0.000000  -0.000000   0.000000   0.000001  -0.003465   0.444566
    19  H   -0.000000   0.000000   0.000000  -0.000000  -0.000000   0.000029
    20  H    0.000000  -0.000000   0.000000   0.000012   0.000001   0.000004
              19         20
     1  C    0.000001  -0.000024
     2  N    0.000007   0.000066
     3  C   -0.000006  -0.004797
     4  O    0.000000  -0.000003
     5  C    0.001624  -0.019059
     6  C    0.001159  -0.013827
     7  C   -0.001756   0.034217
     8  C    0.060937  -0.074209
     9  C   -0.062636   0.079611
    10  N    0.368264   0.353278
    11  O   -0.002046   0.010180
    12  O   -0.000489  -0.000538
    13  H   -0.000000   0.000000
    14  H    0.000000  -0.000000
    15  H    0.000000   0.000000
    16  H   -0.000000   0.000012
    17  H   -0.000000   0.000001
    18  H    0.000029   0.000004
    19  H    0.367635  -0.031584
    20  H   -0.031584   0.385175
 Mulliken charges:
               1
     1  C   -0.311234
     2  N   -0.217494
     3  C   -0.376613
     4  O   -0.382195
     5  C    0.571557
     6  C   -0.195520
     7  C   -0.220167
     8  C    0.397054
     9  C   -0.242913
    10  N   -0.412795
    11  O   -0.399802
    12  O   -0.004278
    13  H    0.183542
    14  H    0.174894
    15  H    0.177750
    16  H    0.277869
    17  H    0.200005
    18  H    0.199981
    19  H    0.298861
    20  H    0.281497
 Sum of Mulliken charges =  -0.00000
 Mulliken charges with hydrogens summed into heavy atoms:
               1
     1  C    0.224952
     2  N    0.060375
     3  C   -0.376613
     4  O   -0.382195
     5  C    0.571557
     6  C    0.004485
     7  C   -0.020186
     8  C    0.397054
     9  C   -0.242913
    10  N    0.167564
    11  O   -0.399802
    12  O   -0.004278
 APT charges:
               1
     1  C   -1.675011
     2  N   -0.059400
     3  C   -0.231894
     4  O   -0.093649
     5  C    0.007046
     6  C   -0.507760
     7  C   -0.657069
     8  C   -0.012754
     9  C   -0.382899
    10  N   -1.068554
    11  O    0.048189
    12  O   -0.158726
    13  H    0.655664
    14  H    0.517000
    15  H    0.446417
    16  H    0.436448
    17  H    0.629845
    18  H    0.703825
    19  H    1.077787
    20  H    0.325496
 Sum of APT charges =  -0.00000
 APT charges with hydrogens summed into heavy atoms:
               1
     1  C   -0.055930
     2  N    0.377048
     3  C   -0.231894
     4  O   -0.093649
     5  C    0.007046
     6  C    0.122084
     7  C    0.046756
     8  C   -0.012754
     9  C   -0.382899
    10  N    0.334729
    11  O    0.048189
    12  O   -0.158726
 Electronic spatial extent (au):  <R**2>=           2671.3468
 Charge=              0.0000 electrons
 Dipole moment (field-independent basis, Debye):
    X=              1.3096    Y=             -3.6889    Z=             -0.1233  Tot=              3.9164
 Quadrupole moment (field-independent basis, Debye-Ang):
   XX=            -82.0762   YY=            -62.7423   ZZ=            -68.7796
   XY=             -4.2792   XZ=              6.4861   YZ=              1.3913
 Traceless Quadrupole moment (field-independent basis, Debye-Ang):
   XX=            -10.8768   YY=              8.4571   ZZ=              2.4197
   XY=             -4.2792   XZ=              6.4861   YZ=              1.3913
 Octapole moment (field-independent basis, Debye-Ang**2):
  XXX=             68.3795  YYY=             -6.8259  ZZZ=              0.1488  XYY=            -22.2834
  XXY=            -79.2894  XXZ=             -3.3955  XZZ=              3.4022  YZZ=             -6.2657
  YYZ=             -5.0115  XYZ=            -12.6961
 Hexadecapole moment (field-independent basis, Debye-Ang**3):
 XXXX=          -2949.7319 YYYY=           -579.1809 ZZZZ=            -79.9797 XXXY=              2.6492
 XXXZ=             31.0278 YYYX=              1.6925 YYYZ=             15.8940 ZZZX=              8.4344
 ZZZY=              1.3927 XXYY=           -490.3570 XXZZ=           -456.4017 YYZZ=           -126.2465
 XXYZ=             10.6880 YYXZ=             30.0057 ZZXY=              3.9594
 N-N= 6.726621159409D+02 E-N=-2.763757553922D+03  KE= 6.046956911540D+02
  Exact polarizability:       0.000       0.000       0.000       0.000       0.000       0.000
 Approx polarizability:     171.579       3.244     140.798      -1.247      -0.579      81.004
 D2PCM: C-PCM CHGder 2nd derivatives, FixD1E=F FixD2E=F DoIter=F DoCFld=F I1PDM=0
 Calling FoFJK, ICntrl=    100127 FMM=F ISym2X=0 I1Cent= 0 IOpClX= 0 NMat=1 NMatS=1 NMatT=0.
 ***** Axes restored to original set *****
 -------------------------------------------------------------------
 Center     Atomic                   Forces (Hartrees/Bohr)
 Number     Number              X              Y              Z
 -------------------------------------------------------------------
      1        6           0.006233077   -0.021704667    0.004301094
      2        7           0.032829137   -0.005264000    0.012357985
      3        6          -0.070228662   -0.014602128   -0.000662529
      4        8           0.031687346    0.020658305   -0.015283769
      5        6           0.001574772   -0.022678905    0.011692295
      6        6          -0.017248795   -0.007556976    0.002271361
      7        6           0.022171959   -0.005934765    0.004242914
      8        6           0.029333915   -0.041352644    0.022002987
      9        6           0.042647390    0.033036005   -0.016196881
     10        7          -0.012762651   -0.033556369    0.017469174
     11        8          -0.039873719    0.001445285    0.003620311
     12        8          -0.029236195    0.070635256   -0.034486717
     13        1           0.001549536    0.011271644   -0.005709567
     14        1          -0.006050625   -0.009438682   -0.008116099
     15        1          -0.012847783   -0.001970226    0.011992597
     16        1           0.020010967    0.021707215   -0.000626863
     17        1          -0.004091867   -0.003857276    0.001503967
     18        1           0.005808917   -0.002024582    0.001284638
     19        1           0.012623546    0.003693609   -0.000795810
     20        1          -0.014130265    0.007493902   -0.010861088
 -------------------------------------------------------------------
 Cartesian Forces:  Max     0.070635256 RMS     0.021898987
 FormGI is forming the generalized inverse of G from B-inverse, IUseBI=4.

 GradGradGradGradGradGradGradGradGradGradGradGradGradGradGradGradGradGrad
 Berny optimization.
 Internal  Forces:  Max     0.041951602 RMS     0.013687007
 Search for a local minimum.
 Step number   1 out of a maximum of   99
 All quantities printed in internal units (Hartrees-Bohrs-Radians)
 Mixed Optimization -- RFO/linear search
 Second derivative matrix not updated -- analytic derivatives used.
 ITU=  0
     Eigenvalues ---    0.00171   0.00312   0.00465   0.00553   0.00573
     Eigenvalues ---    0.01282   0.01430   0.01553   0.02177   0.02482
     Eigenvalues ---    0.03463   0.04375   0.04640   0.05057   0.05328
     Eigenvalues ---    0.06043   0.06222   0.09197   0.10127   0.11740
     Eigenvalues ---    0.13417   0.13544   0.13631   0.14425   0.14672
     Eigenvalues ---    0.16420   0.18011   0.18289   0.18723   0.19234
     Eigenvalues ---    0.22566   0.24333   0.25141   0.26707   0.34392
     Eigenvalues ---    0.35291   0.35907   0.37022   0.37867   0.38865
     Eigenvalues ---    0.39059   0.39550   0.39911   0.40463   0.41248
     Eigenvalues ---    0.43435   0.47632   0.49924   0.50528   0.50782
     Eigenvalues ---    0.52379   0.60353   0.69753   0.72734
 RFO step:  Lambda=-5.20879918D-02 EMin= 1.70542999D-03
 Linear search not attempted -- first point.
 Maximum step size (   0.300) exceeded in Quadratic search.
    -- Step size scaled by   0.746
 Iteration  1 RMS(Cart)=  0.14072754 RMS(Int)=  0.00457303
 Iteration  2 RMS(Cart)=  0.00697416 RMS(Int)=  0.00063778
 Iteration  3 RMS(Cart)=  0.00002208 RMS(Int)=  0.00063749
 Iteration  4 RMS(Cart)=  0.00000002 RMS(Int)=  0.00063749
 Variable       Old X    -DE/DX   Delta X   Delta X   Delta X     New X
                                 (Linear)    (Quad)   (Total)
    R1        2.74893   0.00844   0.00000   0.01090   0.01090   2.75984
    R2        2.02211   0.01211   0.00000   0.02083   0.02083   2.04294
    R3        2.02203   0.01372   0.00000   0.02185   0.02185   2.04388
    R4        2.02206   0.01677   0.00000   0.02696   0.02696   2.04902
    R5        2.68237  -0.02733   0.00000  -0.05370  -0.05370   2.62867
    R6        1.88972   0.01972   0.00000   0.02234   0.02234   1.91206
    R7        2.35394  -0.03857   0.00000  -0.04201  -0.04201   2.31192
    R8        2.76813  -0.00286   0.00000   0.00994   0.00994   2.77807
    R9        2.59255   0.01017   0.00000  -0.00825  -0.00831   2.58425
   R10        2.49372   0.02138   0.00000   0.03683   0.03705   2.53077
   R11        2.61491   0.02236   0.00000   0.04221   0.04194   2.65684
   R12        2.02197   0.00543   0.00000   0.00937   0.00937   2.03134
   R13        2.59110   0.01019   0.00000  -0.00771  -0.00780   2.58330
   R14        2.02203   0.00597   0.00000   0.00939   0.00939   2.03142
   R15        2.76932  -0.00311   0.00000   0.00867   0.00867   2.77799
   R16        2.45636   0.03741   0.00000   0.05513   0.05534   2.51170
   R17        2.68725  -0.02229   0.00000  -0.06420  -0.06420   2.62306
   R18        2.33911  -0.03513   0.00000  -0.03144  -0.03144   2.30768
   R19        1.88971   0.01312   0.00000   0.01719   0.01719   1.90691
   R20        1.88975   0.01579   0.00000   0.01753   0.01753   1.90728
    A1        1.91066  -0.00748   0.00000  -0.01247  -0.01249   1.89817
    A2        1.91064   0.00187   0.00000  -0.00398  -0.00402   1.90662
    A3        1.91062   0.00897   0.00000   0.02582   0.02583   1.93645
    A4        1.91063   0.00060   0.00000  -0.00084  -0.00092   1.90972
    A5        1.91060  -0.00002   0.00000   0.00040   0.00044   1.91104
    A6        1.91065  -0.00394   0.00000  -0.00892  -0.00893   1.90171
    A7        2.14659  -0.04195   0.00000  -0.10227  -0.10070   2.04589
    A8        1.81173   0.01777   0.00000   0.06882   0.07110   1.88283
    A9        1.81172   0.01272   0.00000   0.06475   0.06728   1.87899
   A10        2.08250   0.02418   0.00000   0.05758   0.05746   2.13997
   A11        2.11978  -0.02443   0.00000  -0.07063  -0.07074   2.04904
   A12        2.08090   0.00025   0.00000   0.01306   0.01295   2.09386
   A13        2.20732   0.00560   0.00000   0.03958   0.03953   2.24685
   A14        2.20126  -0.02378   0.00000  -0.07480  -0.07485   2.12641
   A15        1.87460   0.01819   0.00000   0.03522   0.03533   1.90993
   A16        1.85177  -0.00023   0.00000  -0.00155  -0.00189   1.84987
   A17        2.21572  -0.00200   0.00000  -0.00974  -0.00957   2.20616
   A18        2.21570   0.00223   0.00000   0.01129   0.01146   2.22716
   A19        1.87201  -0.00768   0.00000  -0.01500  -0.01537   1.85664
   A20        2.20563   0.00581   0.00000   0.01769   0.01788   2.22350
   A21        2.20555   0.00187   0.00000  -0.00269  -0.00250   2.20304
   A22        2.16288   0.01267   0.00000   0.06636   0.06633   2.22921
   A23        1.87257   0.01867   0.00000   0.03877   0.03884   1.91141
   A24        2.24774  -0.03134   0.00000  -0.10513  -0.10517   2.14257
   A25        2.05985  -0.01038   0.00000  -0.02989  -0.03001   2.02984
   A26        2.15608  -0.01546   0.00000  -0.03407  -0.03418   2.12190
   A27        2.06726   0.02585   0.00000   0.06396   0.06383   2.13109
   A28        1.91064  -0.00193   0.00000   0.02329   0.02164   1.93228
   A29        1.91061   0.01333   0.00000   0.06925   0.06766   1.97827
   A30        1.91063   0.00062   0.00000   0.02111   0.01833   1.92896
   A31        1.95383  -0.02895   0.00000  -0.05744  -0.05690   1.89693
    D1        3.13623   0.00445   0.00000   0.04610   0.04560  -3.10136
    D2        1.09594  -0.00233   0.00000  -0.03729  -0.03687   1.05907
    D3       -1.05254   0.00176   0.00000   0.03498   0.03455  -1.01799
    D4       -3.09283  -0.00503   0.00000  -0.04840  -0.04792  -3.14075
    D5        1.04187   0.00357   0.00000   0.03743   0.03700   1.07887
    D6       -0.99842  -0.00322   0.00000  -0.04595  -0.04547  -1.04389
    D7       -0.00008   0.00206   0.00000   0.03945   0.04007   0.03999
    D8       -3.14154  -0.00133   0.00000   0.01254   0.01280  -3.12873
    D9        2.04021   0.01128   0.00000   0.12480   0.12453   2.16474
   D10       -1.10125   0.00789   0.00000   0.09789   0.09726  -1.00399
   D11       -3.14157   0.00129   0.00000   0.00949   0.00930  -3.13227
   D12       -0.00004   0.00127   0.00000   0.01060   0.01041   0.01037
   D13        0.00016  -0.00210   0.00000  -0.01740  -0.01722  -0.01706
   D14       -3.14150  -0.00212   0.00000  -0.01629  -0.01610   3.12558
   D15        3.14156  -0.00026   0.00000  -0.00081  -0.00078   3.14078
   D16        0.00001  -0.00010   0.00000  -0.00012  -0.00010  -0.00009
   D17        0.00002  -0.00023   0.00000  -0.00175  -0.00178  -0.00176
   D18       -3.14153  -0.00008   0.00000  -0.00106  -0.00110   3.14056
   D19       -3.14153   0.00014   0.00000  -0.00026  -0.00022   3.14144
   D20        0.00001   0.00012   0.00000   0.00068   0.00070   0.00071
   D21       -0.00004   0.00026   0.00000   0.00216   0.00215   0.00211
   D22        3.14157   0.00018   0.00000   0.00167   0.00169  -3.13993
   D23        3.14151   0.00011   0.00000   0.00147   0.00146  -3.14022
   D24       -0.00007   0.00003   0.00000   0.00099   0.00099   0.00093
   D25        3.14158  -0.00008   0.00000  -0.00023  -0.00014   3.14143
   D26        0.00005  -0.00019   0.00000  -0.00178  -0.00180  -0.00175
   D27       -0.00004  -0.00001   0.00000   0.00025   0.00032   0.00028
   D28       -3.14156  -0.00011   0.00000  -0.00130  -0.00134   3.14028
   D29        3.14157   0.00150   0.00000   0.01122   0.01082  -3.13080
   D30        0.00010  -0.00233   0.00000  -0.01801  -0.01756  -0.01746
   D31       -0.00010   0.00163   0.00000   0.01313   0.01268   0.01258
   D32       -3.14157  -0.00219   0.00000  -0.01610  -0.01570   3.12591
   D33       -0.00004   0.00004   0.00000   0.00070   0.00072   0.00068
   D34       -3.14156  -0.00007   0.00000  -0.00096  -0.00085   3.14078
   D35       -3.06928  -0.00199   0.00000  -0.00052  -0.00198  -3.07126
   D36       -0.97490   0.00574   0.00000   0.08201   0.08263  -0.89226
   D37        0.07220   0.00163   0.00000   0.02718   0.02655   0.09875
   D38        2.16658   0.00937   0.00000   0.10971   0.11117   2.27775
         Item               Value     Threshold  Converged?
 Maximum Force            0.041952     0.000450     NO 
 RMS     Force            0.013687     0.000300     NO 
 Maximum Displacement     0.612489     0.001800     NO 
 RMS     Displacement     0.142306     0.001200     NO 
 Predicted change in Energy=-2.820771D-02
 GradGradGradGradGradGradGradGradGradGradGradGradGradGradGradGradGradGrad

                          Input orientation:                          
 ---------------------------------------------------------------------
 Center     Atomic      Atomic             Coordinates (Angstroms)
 Number     Number       Type             X           Y           Z
 ---------------------------------------------------------------------
      1          6           0       -3.953346    0.932596   -0.826933
      2          7           0       -2.517109    0.765697   -0.621360
      3          6           0       -2.091916   -0.422533   -0.036301
      4          8           0       -2.863898   -1.323043    0.263492
      5          6           0       -0.648413   -0.587746    0.187686
      6          6           0        0.017032   -1.652195    0.730139
      7          6           0        1.379349   -1.304943    0.716705
      8          6           0        1.452858   -0.053826    0.170761
      9          6           0        2.657161    0.756035   -0.063396
     10          7           0        2.455806    2.009757   -0.624069
     11          8           0        3.767790    0.355309    0.248336
     12          8           0        0.231497    0.366116   -0.143122
     13          1           0       -4.126035    1.877567   -1.322858
     14          1           0       -4.320264    0.127608   -1.449166
     15          1           0       -4.484602    0.917547    0.118178
     16          1           0       -2.196321    1.527272   -0.037516
     17          1           0       -0.423911   -2.564269    1.089559
     18          1           0        2.207264   -1.896203    1.063903
     19          1           0        3.337771    2.464177   -0.808201
     20          1           0        1.887885    1.988375   -1.458138
 ---------------------------------------------------------------------
                    Distance matrix (angstroms):
                    1          2          3          4          5
     1  C    0.000000
     2  N    1.460442   0.000000
     3  C    2.434419   1.391033   0.000000
     4  O    2.732001   2.294789   1.223418   0.000000
     5  C    3.776702   2.445075   1.470091   2.335548   0.000000
     6  C    4.986935   3.754281   2.558742   2.936981   1.367524
     7  C    5.985568   4.610895   3.659964   4.267419   2.214960
     8  C    5.585290   4.130341   3.569908   4.500433   2.168109
     9  C    6.656798   5.204276   4.893208   5.908596   3.577094
    10  N    6.502204   5.126166   5.190692   6.339919   4.128213
    11  O    7.816995   6.358046   5.917956   6.840788   4.516180
    12  O    4.278015   2.818371   2.455937   3.549657   1.339227
    13  H    1.081080   2.077739   3.329164   3.788588   4.522540
    14  H    1.081576   2.084175   2.695251   2.675553   4.083321
    15  H    1.084295   2.107369   2.746749   2.769123   4.121540
    16  H    2.015925   1.011818   1.952599   2.942883   2.630597
    17  H    5.325215   4.289218   2.938849   2.859469   2.184128
    18  H    7.037790   5.678514   4.676013   5.165836   3.261090
    19  H    7.450267   6.099129   6.197614   7.345220   5.118172
    20  H    5.969344   4.647484   4.865481   6.042262   3.972146
                    6          7          8          9         10
     6  C    0.000000
     7  C    1.405941   0.000000
     8  C    2.220199   1.367023   0.000000
     9  C    3.660539   2.547349   1.470051   0.000000
    10  N    4.603410   3.734122   2.428175   1.388062   0.000000
    11  O    4.281400   2.946262   2.352088   1.221169   2.284642
    12  O    2.209561   2.202113   1.329134   2.458096   2.807207
    13  H    5.817132   6.678131   6.089764   6.989694   6.620152
    14  H    5.170030   6.263288   5.998835   7.141410   7.080847
    15  H    5.219462   6.299493   6.016624   7.145896   7.064922
    16  H    3.949334   4.623387   3.982432   4.914445   4.713717
    17  H    1.074939   2.230845   3.266309   4.674048   5.670185
    18  H    2.228913   1.074979   2.182013   2.916774   4.262340
    19  H    5.508023   4.512984   3.294177   1.983864   1.009091
    20  H    4.641378   3.979258   2.648235   2.013890   1.009288
                   11         12         13         14         15
    11  O    0.000000
    12  O    3.557910   0.000000
    13  H    8.191361   4.760709   0.000000
    14  H    8.267404   4.741431   1.765229   0.000000
    15  H    8.272547   4.755413   1.768274   1.762832   0.000000
    16  H    6.084885   2.693277   2.344911   2.909114   2.373233
    17  H    5.177060   3.245954   6.265412   5.373350   5.436528
    18  H    2.858268   3.237074   7.749106   7.281480   7.320701
    19  H    2.397605   3.806984   7.504491   8.032178   8.027438
    20  H    3.018775   2.665447   6.016461   6.481021   6.651318
                   16         17         18         19         20
    16  H    0.000000
    17  H    4.599178   0.000000
    18  H    5.685496   2.714785   0.000000
    19  H    5.665503   6.560260   4.878087   0.000000
    20  H    4.348738   5.706288   4.642482   1.658607   0.000000
 Stoichiometry    C7H8N2O3
 Framework group  C1[X(C7H8N2O3)]
 Deg. of freedom    54
 Full point group                 C1      NOp   1
 Largest Abelian subgroup         C1      NOp   1
 Largest concise Abelian subgroup C1      NOp   1
                         Standard orientation:                         
 ---------------------------------------------------------------------
 Center     Atomic      Atomic             Coordinates (Angstroms)
 Number     Number       Type             X           Y           Z
 ---------------------------------------------------------------------
      1          6           0        3.821013   -1.353286   -0.008396
      2          7           0        2.396679   -1.030769   -0.020490
      3          6           0        2.049136    0.316100   -0.008957
      4          8           0        2.881855    1.212122   -0.030708
      5          6           0        0.616339    0.645095   -0.004284
      6          6           0        0.021083    1.876270   -0.003306
      7          6           0       -1.364281    1.636644    0.000600
      8          6           0       -1.520550    0.278588    0.004508
      9          6           0       -2.778502   -0.482055    0.009653
     10          7           0       -2.660929   -1.865028    0.026369
     11          8           0       -3.863877    0.077264    0.029116
     12          8           0       -0.326753   -0.305736    0.001011
     13          1           0        3.934746   -2.427100   -0.060577
     14          1           0        4.296598   -0.899161   -0.867114
     15          1           0        4.294802   -0.982650    0.893739
     16          1           0        1.973210   -1.463971    0.789934
     17          1           0        0.522306    2.827197   -0.005800
     18          1           0       -2.153161    2.366882    0.000947
     19          1           0       -3.568653   -2.301161   -0.037586
     20          1           0       -2.045320   -2.222784   -0.688962
 ---------------------------------------------------------------------
 Rotational constants (GHZ):           2.1854401           0.5018126           0.4099014
 Standard basis: 6-311+G(d,p) (5D, 7F)
 There are   324 symmetry adapted cartesian basis functions of A   symmetry.
 There are   312 symmetry adapted basis functions of A   symmetry.
   312 basis functions,   496 primitive gaussians,   324 cartesian basis functions
    44 alpha electrons       44 beta electrons
       nuclear repulsion energy       678.0714932378 Hartrees.
 NAtoms=   20 NActive=   20 NUniq=   20 SFac= 1.00D+00 NAtFMM=   60 NAOKFM=F Big=F
 Integral buffers will be    131072 words long.
 Raffenetti 2 integral format.
 Two-electron integral symmetry is turned on.
 ------------------------------------------------------------------------------
 Polarizable Continuum Model (PCM)
 =================================
 Model                : C-PCM.
 Atomic radii         : UFF (Universal Force Field).
 Polarization charges : Total charges.
 Charge compensation  : None.
 Solution method      : Matrix inversion.
 Cavity type          : Scaled VdW (van der Waals Surface) (Alpha=1.100).
 Cavity algorithm     : GePol (No added spheres)
                        Default sphere list used, NSphG=   20.
                        Lebedev-Laikov grids with approx.  5.0 points / Ang**2.
                        Smoothing algorithm: York/Karplus (Gamma=1.0000).
                        Polarization charges: spherical gaussians, with
                                              point-specific exponents (IZeta= 3).
                        Self-potential: point-specific (ISelfS= 7).
                        Self-field    : sphere-specific E.n sum rule (ISelfD= 2).
 1st derivatives      : Analytical E(r).r(x)/FMM algorithm (CHGder, D1EAlg=3).
                        Cavity 1st derivative terms included.
 Solvent              : Water, Eps=  78.355300 Eps(inf)=   1.777849
 ------------------------------------------------------------------------------
 Spheres list:
 ISph  on   Nord     Re0    Alpha      Xe            Ye            Ze
    1   C      1    1.9255  1.100      3.821013     -1.353286     -0.008396
    2   N      2    1.8300  1.100      2.396679     -1.030769     -0.020490
    3   C      3    1.9255  1.100      2.049136      0.316100     -0.008957
    4   O      4    1.7500  1.100      2.881855      1.212122     -0.030708
    5   C      5    1.9255  1.100      0.616339      0.645095     -0.004284
    6   C      6    1.9255  1.100      0.021083      1.876270     -0.003306
    7   C      7    1.9255  1.100     -1.364281      1.636644      0.000600
    8   C      8    1.9255  1.100     -1.520550      0.278588      0.004508
    9   C      9    1.9255  1.100     -2.778502     -0.482055      0.009653
   10   N     10    1.8300  1.100     -2.660929     -1.865028      0.026369
   11   O     11    1.7500  1.100     -3.863877      0.077264      0.029116
   12   O     12    1.7500  1.100     -0.326753     -0.305736      0.001011
   13   H     13    1.4430  1.100      3.934746     -2.427100     -0.060577
   14   H     14    1.4430  1.100      4.296598     -0.899161     -0.867114
   15   H     15    1.4430  1.100      4.294802     -0.982650      0.893739
   16   H     16    1.4430  1.100      1.973210     -1.463971      0.789934
   17   H     17    1.4430  1.100      0.522306      2.827197     -0.005800
   18   H     18    1.4430  1.100     -2.153161      2.366882      0.000947
   19   H     19    1.4430  1.100     -3.568653     -2.301161     -0.037586
   20   H     20    1.4430  1.100     -2.045320     -2.222784     -0.688962
 ------------------------------------------------------------------------------
 One-electron integrals computed using PRISM.
 NBasis=   312 RedAO= T EigKep=  2.23D-06  NBF=   312
 NBsUse=   311 1.00D-06 EigRej=  9.69D-07 NBFU=   311
 Initial guess from the checkpoint file:  "ZINC000306420048.chk"
 B after Tr=     0.000000    0.000000    0.000000
         Rot=    0.999999   -0.001127    0.000674   -0.000526 Ang=  -0.16 deg.
 ExpMin= 4.38D-02 ExpMax= 8.59D+03 ExpMxC= 1.30D+03 IAcc=3 IRadAn=         5 AccDes= 0.00D+00
 Harris functional with IExCor= 1009 and IRadAn=       5 diagonalized for initial guess.
 HarFok:  IExCor= 1009 AccDes= 0.00D+00 IRadAn=         5 IDoV= 1 UseB2=F ITyADJ=14
 ICtDFT=  3500011 ScaDFX=  1.000000  1.000000  1.000000  1.000000
 FoFCou: FMM=F IPFlag=           0 FMFlag=      100000 FMFlg1=           0
         NFxFlg=           0 DoJE=T BraDBF=F KetDBF=T FulRan=T
         wScrn=  0.000000 ICntrl=       500 IOpCl=  0 I1Cent=   200000004 NGrid=           0
         NMat0=    1 NMatS0=      1 NMatT0=    0 NMatD0=    1 NMtDS0=    0 NMtDT0=    0
 Petite list used in FoFCou.
 Requested convergence on RMS density matrix=1.00D-08 within 128 cycles.
 Requested convergence on MAX density matrix=1.00D-06.
 Requested convergence on             energy=1.00D-06.
 No special actions if energy rises.
 Inv3:  Mode=1 IEnd=     9292800.
 Iteration    1 A*A^-1 deviation from unit magnitude is 4.66D-15 for   1756.
 Iteration    1 A*A^-1 deviation from orthogonality  is 2.08D-15 for   1726    365.
 Iteration    1 A^-1*A deviation from unit magnitude is 4.22D-15 for   1756.
 Iteration    1 A^-1*A deviation from orthogonality  is 1.50D-15 for   1533    752.
 Error on total polarization charges =  0.01249
 SCF Done:  E(RM062X) =  -606.685973942     A.U. after   13 cycles
            NFock= 13  Conv=0.66D-08     -V/T= 2.0033
 D1PCM: C-PCM CHGder 1st derivatives, ID1Alg=3 FixD1E=F DoIter=F DoCFld=F I1PDM=0.
 Calling FoFJK, ICntrl=      2127 FMM=F ISym2X=0 I1Cent= 0 IOpClX= 0 NMat=1 NMatS=1 NMatT=0.
 ***** Axes restored to original set *****
 -------------------------------------------------------------------
 Center     Atomic                   Forces (Hartrees/Bohr)
 Number     Number              X              Y              Z
 -------------------------------------------------------------------
      1        6           0.001645745   -0.007144258    0.001334535
      2        7           0.004375912   -0.002244524    0.013906118
      3        6          -0.022953072   -0.000801107   -0.001572294
      4        8           0.009632804    0.001965376   -0.007438242
      5        6           0.001768012   -0.010007012    0.006487157
      6        6          -0.006947266   -0.001997224    0.000622159
      7        6           0.008301557   -0.001497847    0.001073745
      8        6           0.012388236   -0.018283082    0.008755302
      9        6           0.010851973    0.013935687   -0.008953341
     10        7           0.002170755   -0.013582267    0.001765160
     11        8          -0.010957294   -0.000433563    0.005749095
     12        8          -0.011709951    0.026679972   -0.013107988
     13        1           0.000520223    0.003937617   -0.002487608
     14        1          -0.002170112   -0.003216137   -0.002903013
     15        1          -0.005007417   -0.000615968    0.004107958
     16        1           0.013463066    0.008545003   -0.007539799
     17        1          -0.001778648   -0.001174290    0.000528415
     18        1           0.002271529   -0.000403263    0.000227112
     19        1           0.003970958    0.002147568   -0.000778996
     20        1          -0.009837012    0.004189320    0.000224525
 -------------------------------------------------------------------
 Cartesian Forces:  Max     0.026679972 RMS     0.008259013

 GradGradGradGradGradGradGradGradGradGradGradGradGradGradGradGradGradGrad
 Berny optimization.
 Using GEDIIS/GDIIS optimizer.
 FormGI is forming the generalized inverse of G from B-inverse, IUseBI=4.
 Internal  Forces:  Max     0.015243462 RMS     0.005137750
 Search for a local minimum.
 Step number   2 out of a maximum of   99
 All quantities printed in internal units (Hartrees-Bohrs-Radians)
 Mixed Optimization -- RFO/linear search
 Update second derivatives using D2CorX and points    1    2
 DE= -2.80D-02 DEPred=-2.82D-02 R= 9.93D-01
 TightC=F SS=  1.41D+00  RLast= 3.85D-01 DXNew= 5.0454D-01 1.1539D+00
 Trust test= 9.93D-01 RLast= 3.85D-01 DXMaxT set to 5.05D-01
 ITU=  1  0
 Use linear search instead of GDIIS.
     Eigenvalues ---    0.00171   0.00312   0.00465   0.00553   0.00573
     Eigenvalues ---    0.01281   0.01428   0.01552   0.02176   0.02476
     Eigenvalues ---    0.03446   0.04375   0.04644   0.05054   0.05326
     Eigenvalues ---    0.06042   0.06222   0.09197   0.10127   0.11717
     Eigenvalues ---    0.13400   0.13544   0.13625   0.14419   0.14721
     Eigenvalues ---    0.16498   0.18026   0.18290   0.18774   0.19293
     Eigenvalues ---    0.22563   0.24385   0.25232   0.26606   0.34509
     Eigenvalues ---    0.35604   0.35921   0.36900   0.37928   0.38882
     Eigenvalues ---    0.39055   0.39526   0.39906   0.40294   0.41252
     Eigenvalues ---    0.43428   0.47707   0.49846   0.50435   0.50784
     Eigenvalues ---    0.52381   0.59348   0.70215   0.73675
 RFO step:  Lambda=-1.29807661D-02 EMin= 1.70536647D-03
 Quartic linear search produced a step of  0.72627.
 Iteration  1 RMS(Cart)=  0.15148372 RMS(Int)=  0.04504638
 Iteration  2 RMS(Cart)=  0.06597570 RMS(Int)=  0.00555428
 Iteration  3 RMS(Cart)=  0.00488013 RMS(Int)=  0.00352306
 Iteration  4 RMS(Cart)=  0.00001826 RMS(Int)=  0.00352300
 Iteration  5 RMS(Cart)=  0.00000027 RMS(Int)=  0.00352300
 Variable       Old X    -DE/DX   Delta X   Delta X   Delta X     New X
                                 (Linear)    (Quad)   (Total)
    R1        2.75984   0.00412   0.00792  -0.01384  -0.00592   2.75392
    R2        2.04294   0.00450   0.01513  -0.00350   0.01163   2.05457
    R3        2.04388   0.00480   0.01587  -0.00510   0.01077   2.05465
    R4        2.04902   0.00604   0.01958  -0.00432   0.01526   2.06428
    R5        2.62867  -0.00725  -0.03900  -0.04337  -0.08238   2.54630
    R6        1.91206   0.00635   0.01622  -0.01366   0.00256   1.91462
    R7        2.31192  -0.00935  -0.03051   0.02947  -0.00104   2.31088
    R8        2.77807   0.00093   0.00722   0.00940   0.01662   2.79469
    R9        2.58425   0.00288  -0.00603  -0.00577  -0.01187   2.57238
   R10        2.53077   0.00844   0.02691  -0.00209   0.02507   2.55584
   R11        2.65684   0.00950   0.03046   0.00101   0.03117   2.68801
   R12        2.03134   0.00190   0.00681  -0.00184   0.00496   2.03630
   R13        2.58330   0.00279  -0.00566  -0.00575  -0.01151   2.57179
   R14        2.03142   0.00204   0.00682  -0.00190   0.00492   2.03633
   R15        2.77799   0.00065   0.00630   0.00683   0.01313   2.79112
   R16        2.51170   0.01524   0.04019  -0.00071   0.03971   2.55141
   R17        2.62306  -0.00650  -0.04662  -0.02392  -0.07055   2.55251
   R18        2.30768  -0.00836  -0.02283   0.02146  -0.00137   2.30630
   R19        1.90691   0.00458   0.01249  -0.00819   0.00430   1.91121
   R20        1.90728   0.00527   0.01273  -0.01062   0.00211   1.90939
    A1        1.89817  -0.00255  -0.00907   0.00779  -0.00132   1.89685
    A2        1.90662   0.00043  -0.00292  -0.00324  -0.00620   1.90042
    A3        1.93645   0.00380   0.01876  -0.00854   0.01022   1.94667
    A4        1.90972  -0.00004  -0.00067  -0.00119  -0.00193   1.90779
    A5        1.91104  -0.00006   0.00032   0.00274   0.00306   1.91410
    A6        1.90171  -0.00161  -0.00649   0.00246  -0.00402   1.89769
    A7        2.04589  -0.01302  -0.07314   0.09716   0.01353   2.05942
    A8        1.88283   0.00851   0.05164   0.06120   0.10023   1.98305
    A9        1.87899   0.00617   0.04886   0.08262   0.11920   1.99820
   A10        2.13997   0.00904   0.04173  -0.01247   0.02883   2.16880
   A11        2.04904  -0.00933  -0.05137   0.01561  -0.03616   2.01288
   A12        2.09386   0.00024   0.00941  -0.00377   0.00527   2.09912
   A13        2.24685   0.00351   0.02871   0.00532   0.03396   2.28081
   A14        2.12641  -0.00979  -0.05436   0.00080  -0.05363   2.07278
   A15        1.90993   0.00628   0.02566  -0.00613   0.01964   1.92956
   A16        1.84987   0.00015  -0.00138   0.00144  -0.00031   1.84956
   A17        2.20616  -0.00117  -0.00695  -0.00208  -0.00884   2.19732
   A18        2.22716   0.00102   0.00832   0.00064   0.00915   2.23631
   A19        1.85664  -0.00277  -0.01116   0.00385  -0.00772   1.84892
   A20        2.22350   0.00248   0.01298   0.00000   0.01319   2.23669
   A21        2.20304   0.00029  -0.00182  -0.00385  -0.00546   2.19758
   A22        2.22921   0.00656   0.04817   0.00547   0.05360   2.28281
   A23        1.91141   0.00631   0.02821  -0.00814   0.02014   1.93155
   A24        2.14257  -0.01287  -0.07638   0.00266  -0.07377   2.06880
   A25        2.02984  -0.00413  -0.02180   0.00725  -0.01484   2.01500
   A26        2.12190  -0.00558  -0.02482   0.00500  -0.02008   2.10182
   A27        2.13109   0.00966   0.04636  -0.01268   0.03332   2.16440
   A28        1.93228   0.00068   0.01571   0.05414   0.05742   1.98970
   A29        1.97827   0.00683   0.04914   0.05476   0.09182   2.07009
   A30        1.92896   0.00094   0.01331   0.06300   0.06020   1.98915
   A31        1.89693  -0.00997  -0.04133   0.00898  -0.03176   1.86517
    D1       -3.10136   0.00344   0.03311   0.10288   0.13722  -2.96414
    D2        1.05907  -0.00250  -0.02678  -0.12308  -0.15114   0.90793
    D3       -1.01799   0.00213   0.02509   0.10414   0.13052  -0.88747
    D4       -3.14075  -0.00380  -0.03480  -0.12181  -0.15784   2.98460
    D5        1.07887   0.00280   0.02687   0.09976   0.12788   1.20675
    D6       -1.04389  -0.00314  -0.03302  -0.12620  -0.16048  -1.20437
    D7        0.03999   0.00216   0.02910   0.18732   0.21445   0.25444
    D8       -3.12873   0.00007   0.00930   0.16070   0.16739  -2.96134
    D9        2.16474   0.00933   0.09044   0.40167   0.49472   2.65946
   D10       -1.00399   0.00725   0.07064   0.37505   0.44767  -0.55632
   D11       -3.13227   0.00063   0.00676   0.00611   0.01257  -3.11970
   D12        0.01037   0.00073   0.00756   0.01433   0.02150   0.03187
   D13       -0.01706  -0.00125  -0.01250  -0.01992  -0.03203  -0.04909
   D14        3.12558  -0.00115  -0.01170  -0.01170  -0.02310   3.10248
   D15        3.14078  -0.00008  -0.00057   0.00587   0.00549  -3.13692
   D16       -0.00009  -0.00001  -0.00007   0.00408   0.00419   0.00410
   D17       -0.00176  -0.00018  -0.00129  -0.00154  -0.00291  -0.00467
   D18        3.14056  -0.00011  -0.00080  -0.00333  -0.00420   3.13636
   D19        3.14144   0.00001  -0.00016  -0.00604  -0.00589   3.13555
   D20        0.00071   0.00009   0.00051   0.00075   0.00132   0.00203
   D21        0.00211   0.00019   0.00156   0.00173   0.00333   0.00544
   D22       -3.13993   0.00014   0.00123   0.00175   0.00305  -3.13688
   D23       -3.14022   0.00012   0.00106   0.00355   0.00465  -3.13557
   D24        0.00093   0.00007   0.00072   0.00358   0.00437   0.00530
   D25        3.14143   0.00001  -0.00010   0.00455   0.00474  -3.13701
   D26       -0.00175  -0.00015  -0.00131  -0.00132  -0.00267  -0.00442
   D27        0.00028   0.00006   0.00023   0.00453   0.00500   0.00528
   D28        3.14028  -0.00010  -0.00097  -0.00134  -0.00241   3.13788
   D29       -3.13080   0.00078   0.00786   0.00874   0.01602  -3.11478
   D30       -0.01746  -0.00128  -0.01276  -0.00836  -0.02039  -0.03785
   D31        0.01258   0.00094   0.00921   0.01533   0.02382   0.03640
   D32        3.12591  -0.00112  -0.01140  -0.00177  -0.01259   3.11333
   D33        0.00068   0.00005   0.00052   0.00038   0.00095   0.00163
   D34        3.14078  -0.00008  -0.00061  -0.00514  -0.00531   3.13546
   D35       -3.07126  -0.00089  -0.00144   0.11196   0.10522  -2.96604
   D36       -0.89226   0.00609   0.06002   0.28009   0.34416  -0.54810
   D37        0.09875   0.00145   0.01929   0.12885   0.14407   0.24282
   D38        2.27775   0.00844   0.08074   0.29697   0.38301   2.66076
         Item               Value     Threshold  Converged?
 Maximum Force            0.015243     0.000450     NO 
 RMS     Force            0.005138     0.000300     NO 
 Maximum Displacement     0.772259     0.001800     NO 
 RMS     Displacement     0.208491     0.001200     NO 
 Predicted change in Energy=-1.864759D-02
 GradGradGradGradGradGradGradGradGradGradGradGradGradGradGradGradGradGrad

                          Input orientation:                          
 ---------------------------------------------------------------------
 Center     Atomic      Atomic             Coordinates (Angstroms)
 Number     Number       Type             X           Y           Z
 ---------------------------------------------------------------------
      1          6           0       -3.832642    1.017283   -0.771306
      2          7           0       -2.420343    0.667925   -0.686969
      3          6           0       -2.090750   -0.493749   -0.089072
      4          8           0       -2.884949   -1.389847    0.159232
      5          6           0       -0.648329   -0.680666    0.178493
      6          6           0        0.022451   -1.725198    0.737055
      7          6           0        1.394166   -1.348876    0.747369
      8          6           0        1.444093   -0.103563    0.200714
      9          6           0        2.589755    0.792904   -0.054884
     10          7           0        2.279219    1.993410   -0.590441
     11          8           0        3.717685    0.463853    0.275240
     12          8           0        0.208597    0.312753   -0.150187
     13          1           0       -3.940308    1.875781   -1.429684
     14          1           0       -4.379438    0.174513   -1.187140
     15          1           0       -4.246682    1.253472    0.211578
     16          1           0       -1.822620    1.449316   -0.444734
[...]
 395102,-0.00590587,-0.00125109,0.00011047,-0.11849417,-0.03959481,0.00
 615976,-0.00799951,-0.01713577,0.00632183,-0.09542135,-0.01007445,0.00
 183186,0.63864604,0.00023945,0.00021965,0.00008368,0.00043763,-0.00029
 026,-0.00011454,-0.00055842,-0.00690691,0.00430526,-0.00466235,0.00011
 200,-0.00074852,-0.01877088,-0.01706641,0.01441301,-0.07761266,-0.0151
 5355,0.00440335,0.00520457,-0.36019010,0.13610848,0.09371450,0.6862339
 7,-0.00010137,0.00008077,0.00031198,-0.00037326,0.00025467,-0.00077552
 ,0.00180771,0.00389653,0.00098733,0.00167121,-0.00044931,-0.00027850,-
 0.00337105,0.01258857,0.01197477,0.03399210,0.00970027,0.00786759,-0.0
 0515835,0.13476988,-0.12581789,0.00158304,-0.24582778,0.24362571,-0.00
 083953,0.00013146,-0.00012625,0.00302656,-0.00275517,0.00154520,-0.012
 30753,0.00159424,-0.00210005,0.00533799,0.00155483,-0.00015824,0.01128
 194,0.01250188,-0.00500863,0.00937212,-0.00006817,0.00037900,0.0002898
 6,-0.01092508,0.00481511,-0.14551743,-0.04591700,0.01419120,0.87208533
 ,-0.00068424,0.00007851,-0.00014901,0.00235214,-0.00233622,0.00121396,
 -0.01017561,0.00342354,-0.00093404,0.00498574,0.00123343,-0.00057279,0
 .01565506,0.00325569,0.00131910,0.00362187,-0.00607010,0.00556865,-0.0
 2421096,-0.01088040,0.00394624,-0.07751087,-0.15100008,0.03133966,-0.0
 9394100,0.61331199,0.00024928,-0.00007548,-0.00005451,-0.00079848,0.00
 076067,-0.00056667,0.00328664,0.00009817,0.00357539,-0.00172818,-0.000
 87371,-0.00072537,-0.00645099,0.00104238,0.00210148,-0.00131044,0.0052
 4576,0.00289258,0.01089512,0.00511025,0.00099508,0.02864658,0.03410891
 ,-0.08076373,0.10180510,-0.19702127,0.29978552,0.00014433,-0.00002145,
 0.00002263,-0.00044545,0.00037566,-0.00021495,0.00167489,-0.00020919,0
 .00024642,-0.00082049,-0.00025691,0.00003737,-0.00004984,-0.00057541,0
 .00034417,-0.00092384,-0.00204778,0.00086282,-0.00499900,-0.00080612,-
 0.00014173,0.00866383,-0.03086390,0.01384831,-0.14662662,0.02498686,-0
 .02007040,0.89370760,0.00034303,-0.00004852,0.00005321,-0.00122766,0.0
 0113867,-0.00061379,0.00492494,-0.00091996,0.00083223,-0.00227663,-0.0
 0060823,0.00012187,-0.00446005,-0.00362304,0.00082405,-0.00313629,-0.0
 0036013,-0.00014765,-0.00110991,0.00394102,-0.00151833,-0.00629109,-0.
 03498862,0.02086981,0.01034586,-0.30312397,0.11759221,0.03290535,0.671
 13943,-0.00014441,0.00002043,-0.00002231,0.00051963,-0.00047096,0.0003
 0046,-0.00210419,0.00038249,-0.00040397,0.00096214,0.00029908,0.000041
 68,0.00212345,0.00116577,-0.00131711,0.00136284,-0.00005318,0.00006156
 ,-0.00000539,-0.00149393,0.00151792,0.00260551,0.01871570,0.00348727,-
 0.01335618,0.11883525,-0.10369940,0.06146124,-0.29458443,0.16084232,0.
 00058517,-0.00009761,0.00009572,-0.00189773,0.00167435,-0.00094416,0.0
 0749038,-0.00181253,0.00157597,-0.00395804,-0.00112194,0.00014397,-0.0
 0757647,-0.00027490,-0.00046885,-0.00270688,0.00114099,-0.00078160,0.0
 0312086,0.00469545,-0.00177365,-0.06314007,-0.00388697,-0.00517493,-0.
 57495682,0.13520488,-0.10547166,-0.03211200,0.06332394,-0.03344838,0.6
 7930913,0.00012980,-0.00000712,0.00002287,-0.00040929,0.00040945,-0.00
 018366,0.00166298,-0.00060829,-0.00004617,-0.00086087,-0.00025632,0.00
 015868,-0.00276727,0.00106443,-0.00108545,0.00119714,0.00080934,-0.000
 14853,-0.00069524,-0.00226212,0.00044496,-0.01078837,0.02004290,-0.002
 68701,0.13878812,-0.13914102,0.04050177,0.07250121,-0.02931016,0.02836
 021,-0.19084877,0.14990617,-0.00000966,0.00000269,0.00001532,0.0000134
 3,-0.00000008,0.00008990,-0.00001478,-0.00035109,-0.00086885,0.0000247
 0,0.00013588,0.00019545,0.00067087,-0.00086684,-0.00032299,-0.00080709
 ,-0.00015357,0.00025505,0.00069264,0.00091712,-0.00151529,-0.00201760,
 -0.00208199,0.01701297,-0.10711417,0.04018529,-0.10497001,-0.03763737,
 0.02755325,0.00286223,0.14365420,-0.06865302,0.08041856,0.00051549,-0.
 00093754,0.00051055,0.00095119,-0.00087134,0.00041627,-0.02686883,-0.0
 2990703,0.01205796,-0.01096550,-0.00066648,-0.00102309,-0.14497314,-0.
 09793856,0.03786936,-0.01470390,-0.02837892,0.01058657,-0.03916781,0.0
 4928052,-0.02707904,-0.22525886,0.08378673,-0.05235283,-0.03680579,0.0
 0881993,-0.00649305,0.00141538,0.00208480,-0.00090237,-0.00574106,-0.0
 0456559,0.00119422,0.50014007,-0.00047727,0.00069038,-0.00056970,0.002
 51959,-0.00135331,0.00124681,-0.00550970,0.00171528,-0.00506877,0.0031
 9541,0.00304698,0.00079899,-0.05715003,-0.19108175,0.05233583,0.012237
 78,-0.07306193,0.04029411,0.00987492,-0.05201846,0.03041254,0.04177922
 ,-0.11254574,0.02532294,-0.01611500,0.00945446,-0.00973880,-0.00115661
 ,-0.00152450,0.00096575,-0.00819675,-0.00123406,0.00189216,0.01718410,
 0.41942611,0.00030336,-0.00061009,-0.00016001,-0.00114578,0.00095233,0
 .00035992,0.00089431,-0.00720758,-0.00493148,-0.00279058,0.00045995,0.
 00372500,0.01921090,0.04876561,-0.08637759,-0.00799598,0.03673596,-0.0
 0484284,-0.00904934,0.03386416,-0.00372344,-0.03313750,0.02900351,-0.0
 8136606,0.00491460,-0.00755599,-0.00485885,0.00058187,0.00125060,0.000
 28775,0.00285638,0.00221049,0.00370984,0.02758934,-0.14673899,0.164962
 96,-0.04934384,-0.00119425,0.00046254,-0.00875585,0.03888809,-0.018376
 43,-0.00700667,-0.00302817,0.00076278,0.00214393,-0.00008189,0.0001945
 0,0.00005869,0.00166481,-0.00078777,-0.00042572,-0.00016305,0.00004060
 ,-0.00010850,0.00010026,-0.00005323,-0.00023650,-0.00008178,0.00001891
 ,0.00023097,0.00019275,-0.00006809,-0.00003354,-0.00009719,0.00004159,
 -0.00015299,-0.00003368,0.00000188,0.00010976,-0.00002610,0.00002158,0
 .05975958,0.01107715,-0.28296221,0.10839425,-0.00035900,-0.00559947,0.
 00157208,0.00016601,0.00149963,-0.00063171,0.00057357,-0.00024136,0.00
 031696,-0.00005650,-0.00024294,0.00028528,0.00009348,0.00005149,-0.000
 03335,0.00004236,-0.00002350,0.00000255,0.00012734,0.00003681,-0.00001
 776,-0.00013181,-0.00010848,0.00003853,0.00001907,0.00005446,-0.000023
 32,0.00008731,0.00001848,-0.00000005,0.00000383,-0.00002808,0.00001315
 ,-0.01125624,0.30054671,-0.00514881,0.10733413,-0.09798647,-0.00042177
 ,0.00497457,-0.00439982,-0.00069368,-0.00091259,0.00044090,-0.00010184
 ,0.00025775,0.00021464,-0.00000312,0.00043388,0.00019189,-0.00007608,-
 0.00005546,-0.00002032,-0.00002647,0.00000739,-0.00003173,-0.00007682,
 -0.00003590,-0.00001663,0.00008029,0.00006684,-0.00002259,-0.00001161,
 -0.00003341,0.00001416,-0.00005336,-0.00001062,0.00000184,0.00000812,0
 .00001044,-0.00000426,0.00642066,-0.11795902,0.09968622,-0.08217985,-0
 .06567367,-0.05969723,-0.02775847,-0.01793880,-0.02219377,0.00016728,-
 0.00700213,0.00296209,0.00201876,0.00232405,-0.00102149,-0.00065720,0.
 00042788,0.00084358,0.00010042,-0.00006958,0.00008297,-0.00017858,-0.0
 0006662,-0.00004738,-0.00021343,0.00001533,0.00004553,0.00032397,0.000
 25381,-0.00009899,-0.00004983,-0.00012908,0.00005680,-0.00021496,-0.00
 004268,0.00000420,-0.00004833,0.00021517,-0.00021860,0.00081339,0.0007
 2028,0.00201606,0.10252556,-0.07035755,-0.17744007,-0.11769532,0.00336
 202,0.00904346,0.00876474,0.00149761,0.00115467,0.00093511,-0.00097103
 ,0.00002549,-0.00024479,0.00004064,-0.00025937,-0.00102987,-0.00006951
 ,-0.00001966,0.00004623,0.00002917,0.00007486,-0.00003351,0.00020951,-
 0.00001844,0.00002975,-0.00011469,-0.00007418,0.00006671,0.00001029,0.
 00004038,-0.00001982,0.00006407,0.00000624,-0.00000919,-0.00014279,-0.
 00003582,0.00000909,-0.00984230,-0.01666141,-0.01875097,0.07481865,0.1
 8366113,-0.06272302,-0.11599327,-0.15511125,-0.00650214,0.00195865,-0.
 00056365,-0.00135275,-0.00313884,0.00167095,0.00194438,0.00046400,-0.0
 0027141,-0.00018013,0.00015581,-0.00005151,0.00006700,-0.00004044,0.00
 003059,-0.00006805,-0.00004622,0.00000116,-0.00011354,0.00002905,-0.00
 000485,0.00008614,0.00006922,-0.00002441,-0.00001133,-0.00003337,0.000
 01349,-0.00005362,-0.00001135,0.00000026,0.00011824,0.00005873,-0.0000
 2949,0.00677453,0.00944752,0.01045059,0.07148733,0.12682421,0.16162597
 ,-0.11218933,-0.00035841,0.11349137,-0.03193887,0.00330735,0.02240877,
 0.00005772,-0.00723355,0.00342723,0.00218796,0.00250702,-0.00077420,-0
 .00052782,-0.00033376,-0.00090887,0.00011155,-0.00011060,0.00001470,-0
 .00019385,-0.00002035,0.00005607,-0.00020528,-0.00003716,-0.00007436,0
 .00032495,0.00026317,-0.00008356,-0.00005007,-0.00013151,0.00005403,-0
 .00021625,-0.00004555,-0.00000076,-0.00005585,0.00030586,-0.00002853,0
 .00149682,-0.00098766,-0.00201488,0.00754539,0.00063142,-0.00980799,0.
 13614008,-0.00132735,-0.04896654,0.00152374,0.00612001,-0.00106335,-0.
 00475475,0.00209710,0.00222547,-0.00143180,-0.00196463,-0.00022425,-0.
 00012991,0.00001814,0.00027449,0.00058722,-0.00008590,-0.00000668,-0.0
 0003090,0.00005966,0.00007562,-0.00003493,0.00020852,-0.00002745,0.000
 03821,-0.00011533,-0.00010517,0.00001052,0.00001198,0.00004385,-0.0000
 1836,0.00006752,0.00001547,0.00000625,-0.00018527,-0.00005813,0.000004
 66,-0.01537111,0.00252753,0.02477081,0.01122067,0.00046009,-0.01986144
 ,-0.00096011,0.04513179,0.11907295,0.00031830,-0.25350035,-0.00429583,
 -0.00003995,0.01370591,-0.00042124,0.00110363,0.00073193,-0.00019184,-
 0.00017403,-0.00017985,0.00013757,-0.00059692,-0.00071644,0.00001879,0
 .00005409,0.00000726,-0.00000318,-0.00003713,0.00001536,-0.00011592,0.
 00000023,-0.00000630,0.00007218,0.00007272,0.00000666,-0.00000717,-0.0
 0002915,0.00001026,-0.00004292,-0.00001071,-0.00000851,0.00002304,0.00
 002861,0.00000107,0.00464704,-0.00126726,-0.00942670,0.00933525,0.0012
 0412,-0.01678875,-0.12712588,-0.00043336,0.26644536,-0.01280395,-0.016
 46957,0.00680403,-0.26968287,-0.18778091,0.06172715,0.01491367,0.00101
 059,0.00160512,0.00169403,0.00709911,-0.00384580,0.00020174,0.00292309
 ,-0.00119763,0.00056346,-0.00075586,0.00041995,-0.00010515,-0.00086251
 ,0.00036189,-0.00296256,0.00038680,-0.00039335,-0.00008233,0.00022522,
 -0.00010447,0.00009742,0.00003231,-0.00000450,0.00016925,-0.00004018,0
 .00003170,-0.00136766,0.00074891,-0.00051177,0.00147923,-0.00012530,0.
 00010992,-0.00219824,0.00083253,0.00033728,-0.00249128,0.00020153,-0.0
 0110155,0.27313606,0.00921913,0.00899959,-0.00566611,-0.18562770,-0.22
 983442,0.08785308,-0.02419966,-0.01650273,0.00157933,0.00351755,-0.001
 66851,0.00489951,0.00023211,-0.00239989,0.00050551,-0.00036726,0.00011
 006,-0.00020542,-0.00040541,0.00048953,-0.00013680,0.00085078,-0.00021
 537,-0.00004742,0.00062321,0.00050362,-0.00020720,-0.00011927,-0.00026
 764,0.00010313,-0.00045048,-0.00010369,0.00001566,-0.00067578,0.000935
 96,-0.00022992,0.00034167,0.00112483,-0.00010018,0.00089701,0.00003882
 ,0.00011311,0.00317539,-0.00029704,-0.00020143,0.19308541,0.23900304,-
 0.00484468,-0.00791966,-0.00207481,0.06067745,0.08752483,-0.03527565,0
 .01311933,0.00393981,-0.00892594,-0.00221595,0.00520726,0.00580863,0.0
 0003528,0.00072778,-0.00168559,0.00023720,-0.00023820,-0.00014072,0.00
 015266,-0.00017269,0.00036233,-0.00059775,-0.00008962,-0.00049770,-0.0
 0028742,-0.00024338,0.00001790,0.00006477,0.00011679,-0.00006739,0.000
 21990,0.00005187,0.00001237,0.00013125,-0.00010221,0.00062151,-0.00010
 271,-0.00014181,0.00089500,-0.00354403,-0.00011079,-0.00094748,0.00138
 183,-0.00024018,-0.00030615,-0.06442409,-0.08822099,0.04217931,-0.0000
 3631,-0.00003244,0.00000038,0.00017996,-0.00011436,0.00006503,-0.00003
 839,-0.00036004,0.00041110,-0.00033386,-0.00014563,0.00004235,0.011847
 73,0.01122938,-0.00411561,-0.10637060,-0.10803662,0.04301669,-0.001086
 75,-0.02167563,0.00976888,-0.00679515,-0.00059562,-0.00068179,0.001405
 95,-0.00051744,0.00028398,-0.00048807,-0.00053728,0.00021982,-0.000228
 01,-0.00001354,-0.00001127,0.00079063,0.00514542,-0.00302012,0.0000132
 0,-0.00000486,0.00000176,0.00000212,0.00000069,0.00000067,0.00000648,0
 .00000032,-0.00000144,0.00004753,-0.00001741,0.00002414,0.10017451,0.0
 0005297,0.00001477,0.00005671,0.00004102,0.00031120,-0.00012256,-0.000
 39216,-0.00156342,-0.00062191,-0.00015671,0.00087755,-0.00044156,-0.01
 160038,-0.00860938,0.00300099,-0.10572821,-0.27514448,0.10146208,0.001
 97992,0.00295857,-0.00090180,0.00115935,0.00052419,0.00173761,0.000056
 11,0.00039052,0.00022260,-0.00001002,-0.00007228,-0.00005519,-0.000151
 68,-0.00003052,-0.00001251,0.00029883,-0.00072258,0.00419730,-0.000004
 63,0.00001276,0.00000221,0.00000153,0.00000536,0.00000197,-0.00001993,
 0.00000093,-0.00000104,-0.00009604,0.00000143,-0.00007216,0.11480313,0
 .28150925,-0.00003858,0.00004879,0.00010236,-0.00000666,-0.00013570,0.
 00009849,0.00042510,-0.00061909,-0.00252667,0.00004737,-0.00044085,0.0
 0014792,0.00633098,0.00500019,-0.00156305,0.04196036,0.10126066,-0.075
 80178,-0.00105459,-0.00297408,0.00187704,-0.00148497,0.00158393,0.0032
 4515,0.00002167,0.00017242,0.00078931,-0.00002150,-0.00010138,-0.00014
 639,0.00005191,-0.00000041,-0.00002408,-0.00080261,0.00462188,0.006209
 27,0.00000173,0.00000218,0.00001759,0.00002765,0.00000463,0.00000555,-
 0.00001954,-0.00000196,0.00000568,0.00006067,-0.00006523,-0.00010348,-
 0.04586952,-0.10768229,0.06942963,0.00011494,0.00008061,-0.00001364,-0
 .00062778,0.00021300,-0.00013875,0.00092805,0.00084438,-0.00037358,-0.
 00023211,-0.00010268,0.00002842,-0.00480300,-0.00220783,0.00023037,-0.
 00867554,0.01506456,-0.00772029,-0.24651771,0.13156840,-0.07884580,0.0
 0647268,-0.00254492,0.00169836,-0.00064109,0.00075723,-0.00014581,0.00
 017051,0.00005545,-0.00001323,-0.00023023,-0.00040623,0.00016981,0.002
 68816,-0.00297134,0.00086173,-0.00004602,0.00001506,-0.00001045,-0.000
 01883,0.00000120,-0.00000518,-0.00002325,0.00000486,-0.00000165,-0.000
 07392,-0.00003362,-0.00000007,0.00092069,-0.00024646,0.00037238,0.2506
 1386,0.00002981,0.00005602,-0.00009175,-0.00030286,0.00004882,-0.00012
 156,0.00026725,0.00081593,0.00000842,0.00003220,-0.00000529,-0.0000040
 4,-0.00402514,-0.00135947,0.00214386,-0.00853573,0.01030484,-0.0051071
 8,0.12920571,-0.14263692,0.06119535,0.02039964,-0.00353557,0.00357698,
 0.00081572,-0.00097605,-0.00082363,-0.00012929,0.00035762,-0.00016018,
 -0.00039994,0.00091391,-0.00047436,0.00186049,-0.00252367,0.00514667,-
 0.00002623,0.00000643,-0.00000744,-0.00000962,0.00000320,-0.00000376,0
 .00001048,-0.00000289,0.00000596,-0.00009985,0.00006359,0.00001006,0.0
 0101416,-0.00055293,-0.00059307,-0.14012865,0.13895593,0.00000953,-0.0
 0008730,-0.00010963,0.00009765,-0.00007598,-0.00011494,-0.00010980,0.0
 0005915,0.00074634,-0.00003323,-0.00001588,-0.00001595,0.00106209,0.00
 230300,0.00313667,0.00307700,-0.00303991,0.00243669,-0.07776435,0.0614
 0253,-0.06852549,-0.00879963,0.00156699,-0.00111056,-0.00017258,-0.000
 82878,-0.00256848,0.00007137,-0.00014391,0.00010466,0.00016698,-0.0004
 7492,0.00018566,-0.00134876,0.00472367,0.00608993,0.00000837,-0.000003
 85,-0.00000238,-0.00002473,0.00001047,-0.00000353,0.00002026,-0.000007
 85,0.00000688,0.00003000,0.00001510,0.00009959,-0.00020438,-0.00070350
 ,-0.00173936,0.08393026,-0.06469395,0.06133471,-0.00002788,-0.00000015
 ,-0.00000348,0.00009176,-0.00009261,0.00005126,-0.00041434,0.00009767,
 -0.00007472,0.00018782,0.00004639,-0.00000457,0.00073920,0.00037535,-0
 .00014285,0.00022351,-0.00004651,0.00008382,0.00043333,-0.00010076,0.0
 0003065,-0.00068859,0.00286780,-0.00184230,0.01539071,0.00347444,-0.00
 021907,-0.29080560,-0.18601670,0.05987439,-0.00270230,-0.00011488,0.00
 022050,-0.00028444,-0.00049889,0.00024456,0.00000740,-0.00000407,0.000
 00253,0.00000906,-0.00000322,0.00000258,0.00000937,-0.00000368,0.00000
 229,0.00003597,0.00001724,-0.00000431,0.00008243,-0.00000062,0.0000218
 2,-0.00000901,-0.00005553,0.00000842,0.28736247,-0.00000837,0.00000701
 ,0.00000141,0.00001670,-0.00000565,0.00000086,-0.00004306,-0.00000929,
 -0.00003235,0.00003648,0.00001900,-0.00000650,-0.00025928,0.00005115,0
 .00014069,0.00016699,-0.00036282,-0.00004307,-0.00112453,0.00001264,0.
 00017414,0.00312326,-0.00261334,0.00391670,-0.02585491,-0.01888901,0.0
 0627182,-0.18562019,-0.21529700,0.08040836,0.00011276,0.00423028,-0.00
 403619,0.00082582,0.00092408,-0.00056520,0.00000106,-0.00000090,0.0000
 0040,0.00000414,-0.00000096,0.00000055,0.00000300,0.00000032,-0.000000
 24,-0.00004976,0.00000344,-0.00000865,-0.00009576,0.00000142,-0.000083
 68,0.00003013,0.00001816,0.00007861,0.19933150,0.22169911,0.00000041,0
 .00000211,0.00001075,0.00000091,-0.00000866,-0.00000292,-0.00000991,-0
 .00002011,-0.00006335,-0.00000022,-0.00000570,0.00000037,0.00014672,0.
 00019558,0.00033203,-0.00001470,-0.00006118,-0.00046216,0.00050052,0.0
 0026477,0.00053108,-0.00195994,0.00389523,0.00339394,0.01319905,0.0088
 6908,-0.00310553,0.05967340,0.08034634,-0.03532777,0.00012062,-0.00406
 103,-0.00274869,-0.00036080,-0.00068093,-0.00018941,0.00000017,-0.0000
 0004,-0.00000019,0.00000048,-0.00000189,0.00000025,-0.00000204,0.00000
 099,-0.00000129,0.00002641,-0.00000279,-0.00000252,0.00006536,-0.00007
 533,-0.00012295,-0.00003074,0.00007116,0.00014899,-0.06660524,-0.08033
 612,0.03864409,-0.00002392,0.00004021,-0.00001978,-0.00001738,0.000073
 43,-0.00003455,0.00030905,-0.00023093,0.00014197,-0.00005579,0.0000474
 4,-0.00002768,-0.00158414,-0.00117533,0.00043208,-0.00051571,0.0002960
 7,-0.00019979,-0.00001451,0.00069561,-0.00029636,0.00085735,-0.0011211
 7,0.00066724,-0.00129322,0.00624703,-0.00212351,-0.42846960,0.09139769
 ,-0.07930280,0.00515901,-0.00264713,0.00093454,-0.00036949,-0.00110467
 ,0.00041954,-0.00000332,0.,-0.00000045,0.00001179,0.00000328,-0.000000
 40,0.00001155,0.00000308,-0.00000050,-0.00057040,-0.00006292,-0.000022
 80,-0.00009408,0.00001400,-0.00002366,-0.00001042,0.00007737,-0.000024
 46,-0.00964087,0.00940402,-0.00475047,0.43631410,-0.00008899,0.0000348
 8,-0.00002617,0.00024589,-0.00013936,0.00007904,-0.00066075,0.00000847
 ,-0.00010955,0.00043449,0.00015703,-0.00002795,-0.00164806,-0.00127744
 ,0.00026620,-0.00012493,0.00086892,-0.00030839,0.00032170,0.00063382,-
 0.00038308,0.00144210,-0.00261767,0.00090693,0.02952673,0.00105291,-0.
 00233021,0.09100571,-0.08657136,0.04762319,0.00087027,-0.00446340,0.00
 593059,0.00012425,-0.00000523,0.00029430,0.00001799,-0.00001078,0.0000
 0720,0.00003366,-0.00000377,0.00000589,0.00003491,-0.00000406,0.000003
 57,-0.00026551,0.00001538,-0.00001806,-0.00004648,0.00008765,0.0000030
 7,0.00000685,0.00004835,-0.00008371,-0.01927275,0.01021235,-0.00839149
 ,-0.10195708,0.08197332,0.00003908,-0.00001488,0.00000494,-0.00011286,
 0.00006399,-0.00005328,0.00033893,-0.00007202,-0.00004175,-0.00020497,
 -0.00006191,0.00002301,0.00064807,0.00030768,-0.00046340,-0.00000734,-
 0.00027145,0.00034233,-0.00012524,-0.00035007,-0.00011568,-0.00050484,
 0.00068102,-0.00126896,-0.01278603,-0.00435317,-0.00880437,-0.07909832
 ,0.04764504,-0.02855940,-0.00067253,0.00562205,0.00569899,-0.00014239,
 0.00018693,0.00051618,-0.00000868,0.00000566,-0.00000174,-0.00001570,0
 .00000110,-0.00000246,-0.00001364,0.00000304,-0.00000202,0.00006904,-0
 .00000094,0.00003079,0.00000394,0.00000837,0.00009979,0.00000785,-0.00
 007752,-0.00009980,0.00835374,-0.00588154,-0.00103470,0.08423186,-0.04
 344139,0.03373152\\0.00001310,-0.00001395,0.00002605,0.00002448,-0.000
 04449,-0.00002465,0.00000527,0.00005758,-0.00001906,-0.00002371,0.0000
 0283,0.00000063,-0.00000093,0.00001061,-0.00000311,0.00000033,0.000001
 10,-0.00000200,-0.00000011,0.00000343,0.00000008,0.00001667,0.00000174
 ,-0.00000113,-0.00001517,0.00002499,-0.00000861,-0.00000546,-0.0000066
 2,-0.00000267,0.00001463,-0.00000109,-0.00000115,-0.00001668,0.0000007
 8,-0.00000082,0.00000733,-0.00000972,0.00000326,0.00000029,-0.00000076
 ,0.00000074,-0.00001225,-0.00000241,0.00000014,-0.00001352,-0.00000826
 ,0.00002125,0.00000234,0.00000051,0.00000024,0.00000042,0.00000152,-0.
 00000048,-0.00000197,-0.00000895,0.00000724,0.00000494,-0.00000883,0.0
 0000404\\\@
 The archive entry for this job was punched.


 THE MORE ACCURATE THE CALCULATIONS BECOME, THE MORE THE CONCEPTS
 TEND TO VANISH INTO THIN AIR.
     -- R.S. MULLIKEN, J.C.P. 43,S2(1965)
 Job cpu time:       0 days  1 hours 18 minutes 44.4 seconds.
 Elapsed time:       0 days  0 hours 12 minutes 10.6 seconds.
 File lengths (MBytes):  RWF=    222 Int=      0 D2E=      0 Chk=     18 Scr=      1
 Normal termination of Gaussian 16 at Wed Jul  5 14:13:06 2023.
