 Entering Gaussian System, Link 0=g16
 Initial command:
 /apps/gaussian/g16c01/g16/l1.exe "/jobfs/89254740.gadi-pbs/Gau-2182741.inp" -scrdir="/jobfs/89254740.gadi-pbs/"
 Entering Link 1 = /apps/gaussian/g16c01/g16/l1.exe PID=   2182742.
  
 Copyright (c) 1988-2019, Gaussian, Inc.  All Rights Reserved.
  
 This is part of the Gaussian(R) 16 program.  It is based on
 the Gaussian(R) 09 system (copyright 2009, Gaussian, Inc.),
 the Gaussian(R) 03 system (copyright 2003, Gaussian, Inc.),
 the Gaussian(R) 98 system (copyright 1998, Gaussian, Inc.),
 the Gaussian(R) 94 system (copyright 1995, Gaussian, Inc.),
 the Gaussian 92(TM) system (copyright 1992, Gaussian, Inc.),
 the Gaussian 90(TM) system (copyright 1990, Gaussian, Inc.),
 the Gaussian 88(TM) system (copyright 1988, Gaussian, Inc.),
 the Gaussian 86(TM) system (copyright 1986, Carnegie Mellon
 University), and the Gaussian 82(TM) system (copyright 1983,
 Carnegie Mellon University). Gaussian is a federally registered
 trademark of Gaussian, Inc.
  
 This software contains proprietary and confidential information,
 including trade secrets, belonging to Gaussian, Inc.
  
 This software is provided under written license and may be
 used, copied, transmitted, or stored only in accord with that
 written license.
  
 The following legend is applicable only to US Government
 contracts under FAR:
  
                    RESTRICTED RIGHTS LEGEND
  
 Use, reproduction and disclosure by the US Government is
 subject to restrictions as set forth in subparagraphs (a)
 and (c) of the Commercial Computer Software - Restricted
 Rights clause in FAR 52.227-19.
  
 Gaussian, Inc.
 340 Quinnipiac St., Bldg. 40, Wallingford CT 06492
  
  
 ---------------------------------------------------------------
 Warning -- This program may not be used in any manner that
 competes with the business of Gaussian, Inc. or will provide
 assistance to any competitor of Gaussian, Inc.  The licensee
 of this program is prohibited from giving any competitor of
 Gaussian, Inc. access to this program.  By using this program,
 the user acknowledges that Gaussian, Inc. is engaged in the
 business of creating and licensing software in the field of
 computational chemistry and represents and warrants to the
 licensee that it is not a competitor of Gaussian, Inc. and that
 it will not use this program in any manner prohibited above.
 ---------------------------------------------------------------
  

 Cite this work as:
 Gaussian 16, Revision C.01,
 M. J. Frisch, G. W. Trucks, H. B. Schlegel, G. E. Scuseria, 
 M. A. Robb, J. R. Cheeseman, G. Scalmani, V. Barone, 
 G. A. Petersson, H. Nakatsuji, X. Li, M. Caricato, A. V. Marenich, 
 J. Bloino, B. G. Janesko, R. Gomperts, B. Mennucci, H. P. Hratchian, 
 J. V. Ortiz, A. F. Izmaylov, J. L. Sonnenberg, D. Williams-Young, 
 F. Ding, F. Lipparini, F. Egidi, J. Goings, B. Peng, A. Petrone, 
 T. Henderson, D. Ranasinghe, V. G. Zakrzewski, J. Gao, N. Rega, 
 G. Zheng, W. Liang, M. Hada, M. Ehara, K. Toyota, R. Fukuda, 
 J. Hasegawa, M. Ishida, T. Nakajima, Y. Honda, O. Kitao, H. Nakai, 
 T. Vreven, K. Throssell, J. A. Montgomery, Jr., J. E. Peralta, 
 F. Ogliaro, M. J. Bearpark, J. J. Heyd, E. N. Brothers, K. N. Kudin, 
 V. N. Staroverov, T. A. Keith, R. Kobayashi, J. Normand, 
 K. Raghavachari, A. P. Rendell, J. C. Burant, S. S. Iyengar, 
 J. Tomasi, M. Cossi, J. M. Millam, M. Klene, C. Adamo, R. Cammi, 
 J. W. Ochterski, R. L. Martin, K. Morokuma, O. Farkas, 
 J. B. Foresman, and D. J. Fox, Gaussian, Inc., Wallingford CT, 2019.
 
 ******************************************
 Gaussian 16:  ES64L-G16RevC.01  3-Jul-2019
                29-Jun-2023 
 ******************************************
 %nprocshared=8
 Will use up to    8 processors via shared memory.
 %mem=4000MB
 %chk=ZINC000001529208.chk
 ----------------------------------------------------------------------
 # opt=calcfc freq 6-311+g(d,p) scrf=(cpcm,solvent=water) m062x int(gri
 d=ultrafine)
 ----------------------------------------------------------------------
 1/10=4,18=20,19=15,26=6,38=1/1,3;
 2/9=110,12=2,17=6,18=5,40=1/2;
 3/5=4,6=6,7=111,11=2,25=1,30=1,70=2101,71=2,72=1,74=-55,75=-5,140=1/1,2,3;
 4//1;
 5/5=2,38=5,53=1/2;
 8/6=4,10=90,11=11/1;
 11/6=1,8=1,9=11,15=111,16=1/1,2,10;
 10/6=1,13=1/2;
 6/7=2,8=2,9=2,10=2,28=1/1;
 7/10=1,25=1/1,2,3,16;
 1/10=4,18=20,19=15,26=6/3(2);
 2/9=110/2;
 99//99;
 2/9=110/2;
 3/5=4,6=6,7=111,11=2,25=1,30=1,70=2105,71=1,72=1,74=-55,75=-5/1,2,3;
 4/5=5,16=3,69=1/1;
 5/5=2,38=5,53=1/2;
 7//1,2,3,16;
 1/18=20,19=15,26=6/3(-5);
 2/9=110/2;
 6/7=2,8=2,9=2,10=2,19=2,28=1/1;
 99/9=1/99;
 --------------------
 ZINC000001529208.mol
 --------------------
 Symbolic Z-matrix:
 Charge =  0 Multiplicity = 1
 C                    -3.5304   -0.5595    0.8493 
 C                    -2.3709    0.317     1.125 
 C                    -1.2567    0.1771    0.4431 
 C                    -1.0309   -0.8119   -0.6213 
 C                     0.113    -1.6993   -0.2297 
 C                     1.3662   -0.9568   -0.0257 
 C                     2.6059   -1.6582    0.3651 
 C                     1.3919    0.345    -0.1908 
 C                     2.6193    1.1217    0.0025 
 O                     2.5436    2.3637   -0.1792 
 H                    -3.3692   -1.5165    1.3 
 H                    -3.6446   -0.6778   -0.208 
 H                    -4.416    -0.1181    1.2565 
 H                    -0.4482    0.8361    0.6816 
 H                    -0.7196   -0.2687   -1.489 
 H                    -1.9036   -1.4297   -0.6614 
 H                     0.2848   -2.3465   -1.0642 
 H                    -0.1451   -2.112     0.7232 
 H                     3.4526   -1.0591    0.1023 
 H                     2.6024   -1.8268    1.4217 
 H                     2.6608   -2.5968   -0.1457 
 H                     0.4933    0.8523   -0.4739 
 H                     3.5387    0.6531    0.2855 
 C                    -2.4543    1.4033    2.2134 
 H                    -1.7522    1.1842    2.9905 
 H                    -2.2256    2.3564    1.7844 
 H                    -3.4432    1.4239    2.6217 
 

 GradGradGradGradGradGradGradGradGradGradGradGradGradGradGradGradGradGrad
 Berny optimization.
 Initialization pass.
                           ----------------------------
                           !    Initial Parameters    !
                           ! (Angstroms and Degrees)  !
 --------------------------                            --------------------------
 ! Name  Definition              Value          Derivative Info.                !
 --------------------------------------------------------------------------------
 ! R1    R(1,2)                  1.4794         calculate D2E/DX2 analytically  !
 ! R2    R(1,11)                 1.07           calculate D2E/DX2 analytically  !
 ! R3    R(1,12)                 1.07           calculate D2E/DX2 analytically  !
 ! R4    R(1,13)                 1.07           calculate D2E/DX2 analytically  !
 ! R5    R(2,3)                  1.3138         calculate D2E/DX2 analytically  !
 ! R6    R(2,24)                 1.54           calculate D2E/DX2 analytically  !
 ! R7    R(3,4)                  1.4704         calculate D2E/DX2 analytically  !
 ! R8    R(3,14)                 1.07           calculate D2E/DX2 analytically  !
 ! R9    R(4,5)                  1.4998         calculate D2E/DX2 analytically  !
 ! R10   R(4,15)                 1.07           calculate D2E/DX2 analytically  !
 ! R11   R(4,16)                 1.07           calculate D2E/DX2 analytically  !
 ! R12   R(5,6)                  1.4709         calculate D2E/DX2 analytically  !
 ! R13   R(5,17)                 1.0699         calculate D2E/DX2 analytically  !
 ! R14   R(5,18)                 1.07           calculate D2E/DX2 analytically  !
 ! R15   R(6,7)                  1.477          calculate D2E/DX2 analytically  !
 ! R16   R(6,8)                  1.3125         calculate D2E/DX2 analytically  !
 ! R17   R(7,19)                 1.07           calculate D2E/DX2 analytically  !
 ! R18   R(7,20)                 1.07           calculate D2E/DX2 analytically  !
 ! R19   R(7,21)                 1.07           calculate D2E/DX2 analytically  !
 ! R20   R(8,9)                  1.4653         calculate D2E/DX2 analytically  !
 ! R21   R(8,22)                 1.07           calculate D2E/DX2 analytically  !
 ! R22   R(9,10)                 1.2575         calculate D2E/DX2 analytically  !
 ! R23   R(9,23)                 1.07           calculate D2E/DX2 analytically  !
 ! R24   R(24,25)                1.07           calculate D2E/DX2 analytically  !
 ! R25   R(24,26)                1.0699         calculate D2E/DX2 analytically  !
 ! R26   R(24,27)                1.0701         calculate D2E/DX2 analytically  !
 ! A1    A(2,1,11)             109.4698         calculate D2E/DX2 analytically  !
 ! A2    A(2,1,12)             109.4688         calculate D2E/DX2 analytically  !
 ! A3    A(2,1,13)             109.4724         calculate D2E/DX2 analytically  !
 ! A4    A(11,1,12)            109.4751         calculate D2E/DX2 analytically  !
 ! A5    A(11,1,13)            109.4714         calculate D2E/DX2 analytically  !
 ! A6    A(12,1,13)            109.4698         calculate D2E/DX2 analytically  !
 ! A7    A(1,2,3)              120.3231         calculate D2E/DX2 analytically  !
 ! A8    A(1,2,24)             120.4759         calculate D2E/DX2 analytically  !
 ! A9    A(3,2,24)             119.201          calculate D2E/DX2 analytically  !
 ! A10   A(2,3,4)              125.281          calculate D2E/DX2 analytically  !
 ! A11   A(2,3,14)             117.3588         calculate D2E/DX2 analytically  !
 ! A12   A(4,3,14)             117.3602         calculate D2E/DX2 analytically  !
 ! A13   A(3,4,5)              109.0316         calculate D2E/DX2 analytically  !
 ! A14   A(3,4,15)             106.8727         calculate D2E/DX2 analytically  !
 ! A15   A(3,4,16)             106.872          calculate D2E/DX2 analytically  !
 ! A16   A(5,4,15)             106.8712         calculate D2E/DX2 analytically  !
 ! A17   A(5,4,16)             106.8717         calculate D2E/DX2 analytically  !
 ! A18   A(15,4,16)            120.0014         calculate D2E/DX2 analytically  !
 ! A19   A(4,5,6)              112.791          calculate D2E/DX2 analytically  !
 ! A20   A(4,5,17)             106.065          calculate D2E/DX2 analytically  !
 ! A21   A(4,5,18)             106.0669         calculate D2E/DX2 analytically  !
 ! A22   A(6,5,17)             106.0646         calculate D2E/DX2 analytically  !
 ! A23   A(6,5,18)             106.0634         calculate D2E/DX2 analytically  !
 ! A24   A(17,5,18)            120.0003         calculate D2E/DX2 analytically  !
 ! A25   A(5,6,7)              120.8039         calculate D2E/DX2 analytically  !
 ! A26   A(5,6,8)              119.9958         calculate D2E/DX2 analytically  !
 ! A27   A(7,6,8)              119.2003         calculate D2E/DX2 analytically  !
 ! A28   A(6,7,19)             109.4692         calculate D2E/DX2 analytically  !
 ! A29   A(6,7,20)             109.4732         calculate D2E/DX2 analytically  !
 ! A30   A(6,7,21)             109.4702         calculate D2E/DX2 analytically  !
 ! A31   A(19,7,20)            109.4725         calculate D2E/DX2 analytically  !
 ! A32   A(19,7,21)            109.4692         calculate D2E/DX2 analytically  !
 ! A33   A(20,7,21)            109.4729         calculate D2E/DX2 analytically  !
 ! A34   A(6,8,9)              121.7055         calculate D2E/DX2 analytically  !
 ! A35   A(6,8,22)             119.1485         calculate D2E/DX2 analytically  !
 ! A36   A(9,8,22)             119.146          calculate D2E/DX2 analytically  !
 ! A37   A(8,9,10)             117.0031         calculate D2E/DX2 analytically  !
 ! A38   A(8,9,23)             121.4988         calculate D2E/DX2 analytically  !
 ! A39   A(10,9,23)            121.4982         calculate D2E/DX2 analytically  !
 ! A40   A(2,24,25)            109.4705         calculate D2E/DX2 analytically  !
 ! A41   A(2,24,26)            109.4758         calculate D2E/DX2 analytically  !
 ! A42   A(2,24,27)            109.469          calculate D2E/DX2 analytically  !
 ! A43   A(25,24,26)           109.473          calculate D2E/DX2 analytically  !
 ! A44   A(25,24,27)           109.465          calculate D2E/DX2 analytically  !
 ! A45   A(26,24,27)           109.4741         calculate D2E/DX2 analytically  !
 ! D1    D(11,1,2,3)            77.751          calculate D2E/DX2 analytically  !
 ! D2    D(11,1,2,24)         -102.2423         calculate D2E/DX2 analytically  !
 ! D3    D(12,1,2,3)           -42.2514         calculate D2E/DX2 analytically  !
 ! D4    D(12,1,2,24)          137.7552         calculate D2E/DX2 analytically  !
 ! D5    D(13,1,2,3)          -162.2489         calculate D2E/DX2 analytically  !
 ! D6    D(13,1,2,24)           17.7578         calculate D2E/DX2 analytically  !
 ! D7    D(1,2,3,4)              0.0037         calculate D2E/DX2 analytically  !
 ! D8    D(1,2,3,14)          -179.9939         calculate D2E/DX2 analytically  !
 ! D9    D(24,2,3,4)           179.9971         calculate D2E/DX2 analytically  !
 ! D10   D(24,2,3,14)           -0.0005         calculate D2E/DX2 analytically  !
 ! D11   D(1,2,24,25)          116.2404         calculate D2E/DX2 analytically  !
 ! D12   D(1,2,24,26)         -123.7551         calculate D2E/DX2 analytically  !
 ! D13   D(1,2,24,27)           -3.7501         calculate D2E/DX2 analytically  !
 ! D14   D(3,2,24,25)          -63.7531         calculate D2E/DX2 analytically  !
 ! D15   D(3,2,24,26)           56.2515         calculate D2E/DX2 analytically  !
 ! D16   D(3,2,24,27)          176.2565         calculate D2E/DX2 analytically  !
 ! D17   D(2,3,4,5)           -120.0115         calculate D2E/DX2 analytically  !
 ! D18   D(2,3,4,15)           124.8103         calculate D2E/DX2 analytically  !
 ! D19   D(2,3,4,16)            -4.833          calculate D2E/DX2 analytically  !
 ! D20   D(14,3,4,5)            59.9861         calculate D2E/DX2 analytically  !
 ! D21   D(14,3,4,15)          -55.1921         calculate D2E/DX2 analytically  !
 ! D22   D(14,3,4,16)          175.1646         calculate D2E/DX2 analytically  !
 ! D23   D(3,4,5,6)            -60.0266         calculate D2E/DX2 analytically  !
 ! D24   D(3,4,5,17)          -175.7071         calculate D2E/DX2 analytically  !
 ! D25   D(3,4,5,18)            55.6537         calculate D2E/DX2 analytically  !
 ! D26   D(15,4,5,6)            55.1526         calculate D2E/DX2 analytically  !
 ! D27   D(15,4,5,17)          -60.5279         calculate D2E/DX2 analytically  !
 ! D28   D(15,4,5,18)          170.8329         calculate D2E/DX2 analytically  !
 ! D29   D(16,4,5,6)          -175.2053         calculate D2E/DX2 analytically  !
 ! D30   D(16,4,5,17)           69.1142         calculate D2E/DX2 analytically  !
 ! D31   D(16,4,5,18)          -59.525          calculate D2E/DX2 analytically  !
 ! D32   D(4,5,6,7)            179.9754         calculate D2E/DX2 analytically  !
 ! D33   D(4,5,6,8)             -0.0218         calculate D2E/DX2 analytically  !
 ! D34   D(17,5,6,7)           -64.3439         calculate D2E/DX2 analytically  !
 ! D35   D(17,5,6,8)           115.659          calculate D2E/DX2 analytically  !
 ! D36   D(18,5,6,7)            64.2929         calculate D2E/DX2 analytically  !
 ! D37   D(18,5,6,8)          -115.7042         calculate D2E/DX2 analytically  !
 ! D38   D(5,6,7,19)           158.2404         calculate D2E/DX2 analytically  !
 ! D39   D(5,6,7,20)           -81.7579         calculate D2E/DX2 analytically  !
 ! D40   D(5,6,7,21)            38.2447         calculate D2E/DX2 analytically  !
 ! D41   D(8,6,7,19)           -21.7624         calculate D2E/DX2 analytically  !
 ! D42   D(8,6,7,20)            98.2392         calculate D2E/DX2 analytically  !
 ! D43   D(8,6,7,21)          -141.7581         calculate D2E/DX2 analytically  !
 ! D44   D(5,6,8,9)            179.9995         calculate D2E/DX2 analytically  !
 ! D45   D(5,6,8,22)            -0.0013         calculate D2E/DX2 analytically  !
 ! D46   D(7,6,8,9)              0.0023         calculate D2E/DX2 analytically  !
 ! D47   D(7,6,8,22)          -179.9985         calculate D2E/DX2 analytically  !
 ! D48   D(6,8,9,10)           179.9972         calculate D2E/DX2 analytically  !
 ! D49   D(6,8,9,23)             0.0001         calculate D2E/DX2 analytically  !
 ! D50   D(22,8,9,10)           -0.002          calculate D2E/DX2 analytically  !
 ! D51   D(22,8,9,23)         -179.9991         calculate D2E/DX2 analytically  !
 --------------------------------------------------------------------------------
 Trust Radius=3.00D-01 FncErr=5.00D-06 GrdErr=5.00D-06 EigMax=2.50D+02 EigMin=1.00D-04
 Number of steps in this run=    132 maximum allowed number of steps=    162.
 GradGradGradGradGradGradGradGradGradGradGradGradGradGradGradGradGradGrad

                          Input orientation:                          
 ---------------------------------------------------------------------
 Center     Atomic      Atomic             Coordinates (Angstroms)
 Number     Number       Type             X           Y           Z
 ---------------------------------------------------------------------
      1          6           0       -3.530400   -0.559500    0.849300
      2          6           0       -2.370900    0.317000    1.125000
      3          6           0       -1.256700    0.177100    0.443100
      4          6           0       -1.030900   -0.811900   -0.621300
      5          6           0        0.113000   -1.699300   -0.229700
      6          6           0        1.366200   -0.956800   -0.025700
      7          6           0        2.605900   -1.658200    0.365100
      8          6           0        1.391900    0.345000   -0.190800
      9          6           0        2.619300    1.121700    0.002500
     10          8           0        2.543600    2.363700   -0.179200
     11          1           0       -3.369200   -1.516500    1.300000
     12          1           0       -3.644600   -0.677800   -0.208000
     13          1           0       -4.416000   -0.118100    1.256500
     14          1           0       -0.448200    0.836100    0.681600
     15          1           0       -0.719600   -0.268700   -1.489000
     16          1           0       -1.903600   -1.429700   -0.661400
     17          1           0        0.284800   -2.346500   -1.064200
     18          1           0       -0.145100   -2.112000    0.723200
     19          1           0        3.452600   -1.059100    0.102300
     20          1           0        2.602400   -1.826800    1.421700
     21          1           0        2.660800   -2.596800   -0.145700
     22          1           0        0.493300    0.852300   -0.473900
     23          1           0        3.538700    0.653100    0.285500
     24          6           0       -2.454300    1.403300    2.213400
     25          1           0       -1.752200    1.184200    2.990500
     26          1           0       -2.225600    2.356400    1.784400
     27          1           0       -3.443200    1.423900    2.621700
 ---------------------------------------------------------------------
                    Distance matrix (angstroms):
                    1          2          3          4          5
     1  C    0.000000
     2  C    1.479427   0.000000
     3  C    2.424312   1.313774   0.000000
     4  C    2.910991   2.473778   1.470392   0.000000
     5  C    3.967083   3.474253   2.418598   1.499779   0.000000
     6  C    4.990006   4.112492   2.895705   2.474232   1.470861
     7  C    6.252661   5.408087   4.277159   3.862062   2.563206
     8  C    5.111650   3.986324   2.728571   2.719137   2.411693
     9  C    6.431354   5.177803   4.013698   4.177547   3.780674
    10  O    6.818826   5.481079   4.428403   4.801764   4.734800
    11  H    1.070030   2.094982   2.839932   3.107330   3.807770
    12  H    1.070009   2.094953   2.618559   2.649571   3.894033
    13  H    1.070015   2.095003   3.275659   3.932734   5.022034
    14  H    3.387592   2.040305   1.069970   2.180136   2.752029
    15  H    3.667807   3.146877   2.054318   1.069989   2.079826
    16  H    2.384521   2.541762   2.054314   1.069995   2.079838
    17  H    4.627159   4.351962   3.319146   2.069354   1.069941
    18  H    3.726448   3.318986   2.560096   2.069440   1.070026
    19  H    7.040589   6.070644   4.880762   4.548239   3.416578
    20  H    6.288476   5.423801   4.457121   4.290075   2.990065
    21  H    6.593298   5.951715   4.836115   4.128040   2.702563
    22  H    4.464773   3.323653   2.087890   2.261520   2.591317
    23  H    7.194473   5.978386   4.821543   4.883621   4.187438
    24  C    2.621325   1.540006   2.464097   3.868941   4.710190
    25  H    3.284391   2.148236   2.783706   4.189247   4.707784
    26  H    3.328571   2.148272   2.736275   4.153652   5.096504
    27  H    2.661368   2.148294   3.328902   4.618987   5.525524
                    6          7          8          9         10
     6  C    0.000000
     7  C    1.477005   0.000000
     8  C    1.312479   2.407412   0.000000
     9  C    2.427183   2.803480   1.465312   0.000000
    10  O    3.526408   4.059042   2.324155   1.257501   0.000000
    11  H    4.949218   6.049458   5.325011   6.671262   7.225316
    12  H    5.021871   6.352824   5.139333   6.520656   6.895315
    13  H    5.981747   7.243865   6.003402   7.252935   7.527058
    14  H    2.647038   3.955911   2.094810   3.154727   3.467767
    15  H    2.639184   4.053066   2.553504   3.912293   4.392446
    16  H    3.364423   4.630497   3.772445   5.235172   5.865150
    17  H    2.044303   2.811434   3.038531   4.314644   5.298244
    18  H    2.044350   2.811080   3.038851   4.314873   5.298615
    19  H    2.092824   1.069993   2.510755   2.336715   3.552616
    20  H    2.092859   1.069973   2.963475   3.272318   4.486271
    21  H    2.092842   1.070000   3.204111   3.721683   4.961997
    22  H    2.058077   3.386681   1.070038   2.195315   2.564158
    23  H    2.721834   2.493704   2.220481   1.070033   2.032811
    24  C    5.017954   6.196339   4.657621   5.541552   5.623692
    25  H    4.837950   5.827950   4.550856   5.295476   5.467368
    26  H    5.211025   6.440095   4.586224   5.307797   5.157620
    27  H    5.983877   7.154243   5.696698   6.611009   6.676080
                   11         12         13         14         15
    11  H    0.000000
    12  H    1.747377   0.000000
    13  H    1.747342   1.747307   0.000000
    14  H    3.801235   3.646951   4.121219   0.000000
    15  H    4.044244   3.219309   4.606932   2.450662   0.000000
    16  H    2.450022   1.949873   3.422103   3.009267   1.853294
    17  H    4.430582   4.354058   5.696397   3.703248   2.346599
    18  H    3.328985   3.894941   4.743483   2.963932   2.936262
    19  H    6.941229   7.114206   8.008279   4.375341   4.534779
    20  H    5.980895   6.557525   7.225295   4.116424   4.683539
    21  H    6.294283   6.591245   7.628317   4.704796   4.318751
    22  H    4.865885   4.419743   5.295015   1.490592   1.938607
    23  H    7.311324   7.322202   8.050767   4.010705   4.704432
    24  C    3.193207   3.407487   2.660561   2.586999   4.417299
    25  H    3.572990   4.156756   3.434905   2.674436   4.821110
    26  H    4.067163   3.897382   3.346592   2.585852   4.458064
    27  H    3.224642   3.530568   2.277691   3.616562   5.213516
                   16         17         18         19         20
    16  H    0.000000
    17  H    2.406629   0.000000
    18  H    2.339866   1.853268   0.000000
    19  H    5.423049   3.612904   3.799679   0.000000
    20  H    4.980063   3.438176   2.849210   1.747289   0.000000
    21  H    4.739390   2.559623   2.977095   1.747276   1.747299
    22  H    3.314787   3.259486   3.260012   3.569722   3.901177
    23  H    5.903669   4.626787   4.626850   1.724124   2.884010
    24  C    4.073529   5.683866   4.462111   6.738815   6.052318
    25  H    4.493525   5.749418   4.311421   6.361135   5.521757
    26  H    4.518869   6.044328   5.041946   6.836451   6.398461
    27  H    4.614341   6.457535   5.194647   7.750143   6.968237
                   21         22         23         24         25
    21  H    0.000000
    22  H    4.086816   0.000000
    23  H    3.393890   3.144969   0.000000
    24  C    6.908719   4.026603   6.340004   0.000000
    25  H    6.603505   4.141799   5.965963   1.069969   0.000000
    26  H    7.220553   3.841179   6.194763   1.069927   1.747237
    27  H    7.815584   5.040387   7.402627   1.070073   1.747269
                   26         27
    26  H    0.000000
    27  H    1.747334   0.000000
 Stoichiometry    C10H16O
 Framework group  C1[X(C10H16O)]
 Deg. of freedom    75
 Full point group                 C1      NOp   1
 Largest Abelian subgroup         C1      NOp   1
 Largest concise Abelian subgroup C1      NOp   1
                         Standard orientation:                         
 ---------------------------------------------------------------------
 Center     Atomic      Atomic             Coordinates (Angstroms)
 Number     Number       Type             X           Y           Z
 ---------------------------------------------------------------------
      1          6           0       -3.508517   -0.560181   -0.166455
      2          6           0       -2.428450    0.407897    0.125063
      3          6           0       -1.193148    0.154275   -0.243320
      4          6           0       -0.749672   -1.055104   -0.952394
      5          6           0        0.270154   -1.767112   -0.114339
      6          6           0        1.455910   -0.942248    0.163175
      7          6           0        2.571418   -1.470095    0.974693
      8          6           0        1.531711    0.278756   -0.312227
      9          6           0        2.695034    1.132954   -0.058921
     10          8           0        2.674916    2.287461   -0.556935
     11          1           0       -3.461025   -1.368763    0.532762
     12          1           0       -3.388614   -0.939883   -1.159617
     13          1           0       -4.457062   -0.072032   -0.083357
     14          1           0       -0.449683    0.886991   -0.008327
     15          1           0       -0.249111   -0.728738   -1.839975
     16          1           0       -1.598953   -1.701982   -1.024242
     17          1           0        0.614161   -2.591393   -0.703399
     18          1           0       -0.195814   -1.943797    0.832557
     19          1           0        3.461769   -0.916988    0.759671
     20          1           0        2.333684   -1.373593    2.013448
     21          1           0        2.726956   -2.502102    0.738749
     22          1           0        0.723082    0.660333   -0.900018
     23          1           0        3.524403    0.789749    0.523599
     24          6           0       -2.737226    1.723726    0.863215
     25          1           0       -2.225761    1.733972    1.802966
     26          1           0       -2.409213    2.551216    0.269573
     27          1           0       -3.791434    1.800109    1.030151
 ---------------------------------------------------------------------
 Rotational constants (GHZ):           1.5500984           0.6051784           0.4826321
 Standard basis: 6-311+G(d,p) (5D, 7F)
 There are   349 symmetry adapted cartesian basis functions of A   symmetry.
 There are   338 symmetry adapted basis functions of A   symmetry.
   338 basis functions,   524 primitive gaussians,   349 cartesian basis functions
    42 alpha electrons       42 beta electrons
       nuclear repulsion energy       605.9478595343 Hartrees.
 NAtoms=   27 NActive=   27 NUniq=   27 SFac= 1.00D+00 NAtFMM=   60 NAOKFM=F Big=F
 Integral buffers will be    131072 words long.
 Raffenetti 2 integral format.
 Two-electron integral symmetry is turned on.
 Force inversion solution in PCM.
 ------------------------------------------------------------------------------
 Polarizable Continuum Model (PCM)
 =================================
 Model                : C-PCM.
 Atomic radii         : UFF (Universal Force Field).
 Polarization charges : Total charges.
 Charge compensation  : None.
 Solution method      : Matrix inversion.
 Cavity type          : Scaled VdW (van der Waals Surface) (Alpha=1.100).
 Cavity algorithm     : GePol (No added spheres)
                        Default sphere list used, NSphG=   27.
                        Lebedev-Laikov grids with approx.  5.0 points / Ang**2.
                        Smoothing algorithm: York/Karplus (Gamma=1.0000).
                        Polarization charges: spherical gaussians, with
                                              point-specific exponents (IZeta= 3).
                        Self-potential: point-specific (ISelfS= 7).
                        Self-field    : sphere-specific E.n sum rule (ISelfD= 2).
 1st derivatives      : Analytical E(r).r(x)/FMM algorithm (CHGder, D1EAlg=3).
                        Cavity 1st derivative terms included.
 2nd derivatives      : Analytical E(r).r(xy)/FMM algorithm (CHGder, D2EAlg=3).
                        Cavity 2nd derivative terms included.
 Solvent              : Water, Eps=  78.355300 Eps(inf)=   1.777849
 ------------------------------------------------------------------------------
 One-electron integrals computed using PRISM.
 NBasis=   338 RedAO= T EigKep=  2.00D-06  NBF=   338
 NBsUse=   338 1.00D-06 EigRej= -1.00D+00 NBFU=   338
 ExpMin= 4.38D-02 ExpMax= 8.59D+03 ExpMxC= 1.30D+03 IAcc=3 IRadAn=         5 AccDes= 0.00D+00
 Harris functional with IExCor= 1009 and IRadAn=       5 diagonalized for initial guess.
 HarFok:  IExCor= 1009 AccDes= 0.00D+00 IRadAn=         5 IDoV= 1 UseB2=F ITyADJ=14
 ICtDFT=  3500011 ScaDFX=  1.000000  1.000000  1.000000  1.000000
 FoFCou: FMM=F IPFlag=           0 FMFlag=      100000 FMFlg1=           0
         NFxFlg=           0 DoJE=T BraDBF=F KetDBF=T FulRan=T
         wScrn=  0.000000 ICntrl=       500 IOpCl=  0 I1Cent=   200000004 NGrid=           0
         NMat0=    1 NMatS0=      1 NMatT0=    0 NMatD0=    1 NMtDS0=    0 NMtDT0=    0
 Petite list used in FoFCou.
 Requested convergence on RMS density matrix=1.00D-08 within 128 cycles.
 Requested convergence on MAX density matrix=1.00D-06.
 Requested convergence on             energy=1.00D-06.
 No special actions if energy rises.
 Inv3:  Mode=1 IEnd=    10967232.
 Iteration    1 A*A^-1 deviation from unit magnitude is 6.44D-15 for   1900.
 Iteration    1 A*A^-1 deviation from orthogonality  is 2.47D-15 for   1760    990.
 Iteration    1 A^-1*A deviation from unit magnitude is 6.22D-15 for   1900.
 Iteration    1 A^-1*A deviation from orthogonality  is 1.12D-15 for   1341    806.
 Error on total polarization charges =  0.01477
 SCF Done:  E(RM062X) =  -465.739576601     A.U. after   16 cycles
            NFock= 16  Conv=0.51D-08     -V/T= 2.0019
 DoSCS=F DFT=T ScalE2(SS,OS)=  1.000000  1.000000
 Range of M.O.s used for correlation:     1   338
 NBasis=   338 NAE=    42 NBE=    42 NFC=     0 NFV=     0
 NROrb=    338 NOA=    42 NOB=    42 NVA=   296 NVB=   296

 **** Warning!!: The largest alpha MO coefficient is  0.16004119D+03

 Symmetrizing basis deriv contribution to polar:
 IMax=3 JMax=2 DiffMx= 0.00D+00
 G2DrvN: will do    28 centers at a time, making    1 passes.
 Calling FoFCou, ICntrl=  3107 FMM=F I1Cent=   0 AccDes= 0.00D+00.
 NEqPCM:  Using equilibrium solvation (IEInf=0, Eps=  78.3553, EpsInf=   1.7778)
 G2PCM: DoFxE=T DoFxN=T DoGrad=T DoDP/DQ/DG/TGxP=FFFF NFrqRd=   0 IEInf=0 SqF1=F DoCFld=F IF1Alg=4.
 End of G2Drv F.D. properties file   721 does not exist.
 End of G2Drv F.D. properties file   722 does not exist.
 End of G2Drv F.D. properties file   788 does not exist.
          IDoAtm=111111111111111111111111111
 NEqPCM:  Using equilibrium solvation (IEInf=0, Eps=  78.3553, EpsInf=   1.7778)
          Differentiating once with respect to nuclear coordinates.
 CalDSu exits because no D1Ps are significant.
          There are    84 degrees of freedom in the 1st order CPHF.  IDoFFX=6 NUNeed=     0.
     78 vectors produced by pass  0 Test12= 1.48D-14 1.19D-09 XBig12= 1.60D-01 8.87D-02.
 AX will form    78 AO Fock derivatives at one time.
     78 vectors produced by pass  1 Test12= 1.48D-14 1.19D-09 XBig12= 8.02D-03 1.81D-02.
     78 vectors produced by pass  2 Test12= 1.48D-14 1.19D-09 XBig12= 2.17D-04 3.07D-03.
     78 vectors produced by pass  3 Test12= 1.48D-14 1.19D-09 XBig12= 1.39D-06 1.52D-04.
     78 vectors produced by pass  4 Test12= 1.48D-14 1.19D-09 XBig12= 6.99D-09 9.60D-06.
     78 vectors produced by pass  5 Test12= 1.48D-14 1.19D-09 XBig12= 3.03D-11 5.17D-07.
     46 vectors produced by pass  6 Test12= 1.48D-14 1.19D-09 XBig12= 1.16D-13 2.66D-08.
      5 vectors produced by pass  7 Test12= 1.48D-14 1.19D-09 XBig12= 3.82D-16 2.14D-09.
 InvSVY:  IOpt=1 It=  1 EMax= 7.22D-16
 Solved reduced A of dimension   519 with    84 vectors.
 End of Minotr F.D. properties file   721 does not exist.
 End of Minotr F.D. properties file   722 does not exist.
 End of Minotr F.D. properties file   788 does not exist.

 **********************************************************************

            Population analysis using the SCF Density.

 **********************************************************************

 Orbital symmetries:
       Occupied  (A) (A) (A) (A) (A) (A) (A) (A) (A) (A) (A) (A)
                 (A) (A) (A) (A) (A) (A) (A) (A) (A) (A) (A) (A)
                 (A) (A) (A) (A) (A) (A) (A) (A) (A) (A) (A) (A)
                 (A) (A) (A) (A) (A) (A)
       Virtual   (A) (A) (A) (A) (A) (A) (A) (A) (A) (A) (A) (A)
                 (A) (A) (A) (A) (A) (A) (A) (A) (A) (A) (A) (A)
                 (A) (A) (A) (A) (A) (A) (A) (A) (A) (A) (A) (A)
                 (A) (A) (A) (A) (A) (A) (A) (A) (A) (A) (A) (A)
                 (A) (A) (A) (A) (A) (A) (A) (A) (A) (A) (A) (A)
                 (A) (A) (A) (A) (A) (A) (A) (A) (A) (A) (A) (A)
                 (A) (A) (A) (A) (A) (A) (A) (A) (A) (A) (A) (A)
                 (A) (A) (A) (A) (A) (A) (A) (A) (A) (A) (A) (A)
                 (A) (A) (A) (A) (A) (A) (A) (A) (A) (A) (A) (A)
                 (A) (A) (A) (A) (A) (A) (A) (A) (A) (A) (A) (A)
                 (A) (A) (A) (A) (A) (A) (A) (A) (A) (A) (A) (A)
                 (A) (A) (A) (A) (A) (A) (A) (A) (A) (A) (A) (A)
                 (A) (A) (A) (A) (A) (A) (A) (A) (A) (A) (A) (A)
                 (A) (A) (A) (A) (A) (A) (A) (A) (A) (A) (A) (A)
                 (A) (A) (A) (A) (A) (A) (A) (A) (A) (A) (A) (A)
                 (A) (A) (A) (A) (A) (A) (A) (A) (A) (A) (A) (A)
                 (A) (A) (A) (A) (A) (A) (A) (A) (A) (A) (A) (A)
                 (A) (A) (A) (A) (A) (A) (A) (A) (A) (A) (A) (A)
                 (A) (A) (A) (A) (A) (A) (A) (A) (A) (A) (A) (A)
                 (A) (A) (A) (A) (A) (A) (A) (A) (A) (A) (A) (A)
                 (A) (A) (A) (A) (A) (A) (A) (A) (A) (A) (A) (A)
                 (A) (A) (A) (A) (A) (A) (A) (A) (A) (A) (A) (A)
                 (A) (A) (A) (A) (A) (A) (A) (A) (A) (A) (A) (A)
                 (A) (A) (A) (A) (A) (A) (A) (A) (A) (A) (A) (A)
                 (A) (A) (A) (A) (A) (A) (A) (A)
 The electronic state is 1-A.
 Alpha  occ. eigenvalues --  -19.62279 -10.63242 -10.56408 -10.53487 -10.53375
 Alpha  occ. eigenvalues --  -10.52868 -10.52835 -10.52560 -10.51890 -10.51608
 Alpha  occ. eigenvalues --  -10.50694  -1.15068  -0.96961  -0.92185  -0.86881
 Alpha  occ. eigenvalues --   -0.81634  -0.79258  -0.78150  -0.72399  -0.69099
 Alpha  occ. eigenvalues --   -0.62595  -0.60474  -0.57423  -0.55320  -0.54152
 Alpha  occ. eigenvalues --   -0.51781  -0.50499  -0.50398  -0.49373  -0.47739
 Alpha  occ. eigenvalues --   -0.46999  -0.46388  -0.46036  -0.45538  -0.42933
 Alpha  occ. eigenvalues --   -0.42305  -0.42169  -0.39523  -0.37620  -0.33554
 Alpha  occ. eigenvalues --   -0.31789  -0.28755
 Alpha virt. eigenvalues --   -0.02920   0.01097   0.02234   0.02291   0.03136
 Alpha virt. eigenvalues --    0.03802   0.04331   0.04634   0.05050   0.05488
 Alpha virt. eigenvalues --    0.06009   0.06111   0.06744   0.07326   0.07617
 Alpha virt. eigenvalues --    0.08240   0.08767   0.09630   0.09864   0.10695
 Alpha virt. eigenvalues --    0.11317   0.11840   0.12209   0.12794   0.13579
 Alpha virt. eigenvalues --    0.13983   0.14618   0.15195   0.15997   0.16782
 Alpha virt. eigenvalues --    0.17300   0.17953   0.18790   0.18969   0.19086
 Alpha virt. eigenvalues --    0.19275   0.19957   0.21301   0.21716   0.22128
 Alpha virt. eigenvalues --    0.22498   0.23042   0.23679   0.24121   0.24548
 Alpha virt. eigenvalues --    0.25209   0.25459   0.26336   0.26513   0.27177
 Alpha virt. eigenvalues --    0.27304   0.27865   0.28460   0.28693   0.29454
 Alpha virt. eigenvalues --    0.30009   0.30724   0.31653   0.32126   0.32238
 Alpha virt. eigenvalues --    0.32428   0.33000   0.33461   0.34260   0.35187
 Alpha virt. eigenvalues --    0.37036   0.37714   0.38708   0.42422   0.43685
 Alpha virt. eigenvalues --    0.44114   0.45148   0.46432   0.46942   0.47474
 Alpha virt. eigenvalues --    0.48884   0.49786   0.50713   0.53448   0.53757
 Alpha virt. eigenvalues --    0.54490   0.56268   0.57654   0.58459   0.59551
 Alpha virt. eigenvalues --    0.61223   0.62046   0.63400   0.65227   0.65723
 Alpha virt. eigenvalues --    0.66692   0.67818   0.68698   0.69140   0.70170
 Alpha virt. eigenvalues --    0.70497   0.71423   0.72512   0.72918   0.73021
 Alpha virt. eigenvalues --    0.73840   0.74638   0.75726   0.76004   0.76726
 Alpha virt. eigenvalues --    0.77228   0.78102   0.78998   0.79707   0.79965
 Alpha virt. eigenvalues --    0.80738   0.82957   0.83054   0.83689   0.86327
 Alpha virt. eigenvalues --    0.86946   0.87638   0.89921   0.91482   0.92884
 Alpha virt. eigenvalues --    0.95259   0.97134   0.97944   0.99065   1.01152
 Alpha virt. eigenvalues --    1.03577   1.04107   1.05641   1.11282   1.13573
 Alpha virt. eigenvalues --    1.15445   1.16437   1.17782   1.20662   1.23843
 Alpha virt. eigenvalues --    1.25440   1.28960   1.30525   1.32354   1.35338
 Alpha virt. eigenvalues --    1.37571   1.40003   1.41903   1.43487   1.44890
 Alpha virt. eigenvalues --    1.47088   1.48875   1.50383   1.51784   1.52709
 Alpha virt. eigenvalues --    1.53960   1.54620   1.56128   1.56994   1.57158
 Alpha virt. eigenvalues --    1.58275   1.58957   1.60257   1.61075   1.62507
 Alpha virt. eigenvalues --    1.63215   1.63613   1.65387   1.66282   1.66669
 Alpha virt. eigenvalues --    1.68546   1.70501   1.71262   1.72370   1.73707
 Alpha virt. eigenvalues --    1.75150   1.77750   1.77865   1.79225   1.81076
 Alpha virt. eigenvalues --    1.82311   1.83120   1.84130   1.84690   1.85196
 Alpha virt. eigenvalues --    1.87492   1.88344   1.90938   1.93418   1.95057
 Alpha virt. eigenvalues --    1.96999   1.98493   2.00616   2.03699   2.05405
 Alpha virt. eigenvalues --    2.07333   2.08798   2.10128   2.12112   2.13431
 Alpha virt. eigenvalues --    2.15549   2.18576   2.19421   2.19554   2.21789
 Alpha virt. eigenvalues --    2.24453   2.27083   2.27846   2.29609   2.31025
 Alpha virt. eigenvalues --    2.34143   2.36405   2.40451   2.45638   2.47173
 Alpha virt. eigenvalues --    2.48030   2.51662   2.52383   2.54116   2.54784
 Alpha virt. eigenvalues --    2.55189   2.58647   2.59470   2.60409   2.61532
 Alpha virt. eigenvalues --    2.62692   2.64338   2.65093   2.66009   2.67250
 Alpha virt. eigenvalues --    2.67423   2.68600   2.70052   2.70674   2.71134
 Alpha virt. eigenvalues --    2.71844   2.73056   2.74593   2.77580   2.77742
 Alpha virt. eigenvalues --    2.78848   2.80367   2.82362   2.84944   2.88458
 Alpha virt. eigenvalues --    2.89680   2.91026   2.94259   2.95261   2.96874
 Alpha virt. eigenvalues --    3.01195   3.02668   3.05044   3.07379   3.09712
 Alpha virt. eigenvalues --    3.12174   3.15338   3.15776   3.19082   3.25361
 Alpha virt. eigenvalues --    3.27610   3.29028   3.30317   3.37077   3.39070
 Alpha virt. eigenvalues --    3.46282   3.51707   3.52869   3.59882   3.78861
 Alpha virt. eigenvalues --    3.84683   3.87842   3.89759   3.90600   3.94872
 Alpha virt. eigenvalues --    3.95273   3.98044   3.99104   4.00244   4.07447
 Alpha virt. eigenvalues --    4.13074   4.19628   4.22043   4.36548   4.43930
 Alpha virt. eigenvalues --    4.47751   4.59351   5.13098   5.28444   5.80560
 Alpha virt. eigenvalues --   23.79445  23.83463  23.95034  24.06686  24.07949
 Alpha virt. eigenvalues --   24.10775  24.13354  24.14378  24.42270  24.45829
 Alpha virt. eigenvalues --   50.05692
          Condensed to atoms (all electrons):
               1          2          3          4          5          6
     1  C    7.359695  -2.381377   1.864963  -0.498081   0.001485  -0.016342
     2  C   -2.381377  17.095828 -10.045792   0.496879  -0.167011   0.531549
     3  C    1.864963 -10.045792  15.832094  -1.129154   0.023923  -0.257417
     4  C   -0.498081   0.496879  -1.129154   7.574291  -1.154938   0.842863
     5  C    0.001485  -0.167011   0.023923  -1.154938   9.988445  -4.182880
     6  C   -0.016342   0.531549  -0.257417   0.842863  -4.182880  13.300666
     7  C    0.001206   0.280757  -0.059594  -0.195588  -0.678816   0.352826
     8  C    0.114454  -1.341593   0.797460  -0.209880   2.490159  -5.431710
     9  C   -0.032172  -0.034669  -0.123028  -0.020045   0.280881  -0.586365
    10  O   -0.000655   0.000502   0.009280   0.009716  -0.046081   0.142791
    11  H    0.302089   0.235342  -0.263732   0.064729  -0.004439  -0.001770
    12  H    0.386639  -0.085183   0.083838  -0.019546   0.007195   0.001400
    13  H    0.429336  -0.217327   0.174542  -0.010954  -0.000631  -0.001844
    14  H   -0.004407  -0.032682   0.423737  -0.088292  -0.009542   0.046300
    15  H    0.005082   0.055573  -0.078320   0.440006  -0.157597   0.110037
    16  H   -0.007610   0.039262  -0.024877   0.250809   0.085584  -0.057572
    17  H    0.008100  -0.027683   0.057129  -0.009823   0.313580   0.014343
    18  H   -0.003086   0.073759  -0.047856  -0.019888   0.249559   0.125972
    19  H   -0.000341   0.005064   0.001091  -0.002713  -0.034287  -0.150678
    20  H   -0.000748   0.005682   0.006962  -0.012312  -0.027507   0.109665
    21  H    0.000737  -0.006536  -0.004831   0.026455   0.047316  -0.046604
    22  H   -0.001160  -0.003297   0.016915  -0.008925   0.008121   0.035969
    23  H    0.000141  -0.004054   0.002414   0.003494  -0.022171   0.101790
    24  C   -0.654694   1.522166  -1.532892  -0.181177  -0.101759   0.133712
    25  H   -0.003142   0.090786  -0.103383   0.003851   0.007680  -0.004697
    26  H   -0.002060   0.015865  -0.065314   0.010402  -0.007485   0.009237
    27  H    0.003534  -0.199427   0.162658   0.003431   0.000698  -0.002287
               7          8          9         10         11         12
     1  C    0.001206   0.114454  -0.032172  -0.000655   0.302089   0.386639
     2  C    0.280757  -1.341593  -0.034669   0.000502   0.235342  -0.085183
     3  C   -0.059594   0.797460  -0.123028   0.009280  -0.263732   0.083838
     4  C   -0.195588  -0.209880  -0.020045   0.009716   0.064729  -0.019546
     5  C   -0.678816   2.490159   0.280881  -0.046081  -0.004439   0.007195
     6  C    0.352826  -5.431710  -0.586365   0.142791  -0.001770   0.001400
     7  C    7.265593  -1.393695  -0.230073   0.033527  -0.000876   0.000452
     8  C   -1.393695  11.755976  -0.033264  -0.085264  -0.001623   0.003761
     9  C   -0.230073  -0.033264   6.358541   0.228080  -0.000041   0.000515
    10  O    0.033527  -0.085264   0.228080   8.144238  -0.000000   0.000001
    11  H   -0.000876  -0.001623  -0.000041  -0.000000   0.475379  -0.026571
    12  H    0.000452   0.003761   0.000515   0.000001  -0.026571   0.515407
    13  H   -0.000141   0.002024   0.000119  -0.000000  -0.020815  -0.023868
    14  H   -0.001778  -0.076617  -0.000155   0.001458  -0.000396   0.000201
    15  H    0.028321  -0.096273   0.006907   0.000022  -0.000615   0.000777
    16  H   -0.004560   0.036637   0.005319   0.000003  -0.003662   0.002149
    17  H   -0.023008   0.008433  -0.004174   0.000094  -0.000135   0.000148
    18  H    0.094076  -0.163053   0.002942   0.000036  -0.000666   0.000205
    19  H    0.450055   0.087921   0.003198   0.001794  -0.000000   0.000000
    20  H    0.346917  -0.085843   0.011257   0.000067  -0.000002   0.000000
    21  H    0.361440  -0.000444  -0.005252   0.000037  -0.000000  -0.000000
    22  H   -0.002101   0.351979  -0.044157  -0.002501   0.000038  -0.000093
    23  H    0.028669  -0.098578   0.314845  -0.032991  -0.000000   0.000000
    24  C    0.026048  -0.273567   0.014750   0.002608   0.038825  -0.023283
    25  H   -0.000324   0.000200  -0.000274   0.000004   0.000732  -0.000211
    26  H    0.000703  -0.006641  -0.003241   0.000016  -0.000318  -0.000092
    27  H   -0.000284   0.003121   0.000618   0.000000   0.000034   0.000269
              13         14         15         16         17         18
     1  C    0.429336  -0.004407   0.005082  -0.007610   0.008100  -0.003086
     2  C   -0.217327  -0.032682   0.055573   0.039262  -0.027683   0.073759
     3  C    0.174542   0.423737  -0.078320  -0.024877   0.057129  -0.047856
     4  C   -0.010954  -0.088292   0.440006   0.250809  -0.009823  -0.019888
     5  C   -0.000631  -0.009542  -0.157597   0.085584   0.313580   0.249559
     6  C   -0.001844   0.046300   0.110037  -0.057572   0.014343   0.125972
     7  C   -0.000141  -0.001778   0.028321  -0.004560  -0.023008   0.094076
     8  C    0.002024  -0.076617  -0.096273   0.036637   0.008433  -0.163053
     9  C    0.000119  -0.000155   0.006907   0.005319  -0.004174   0.002942
    10  O   -0.000000   0.001458   0.000022   0.000003   0.000094   0.000036
    11  H   -0.020815  -0.000396  -0.000615  -0.003662  -0.000135  -0.000666
    12  H   -0.023868   0.000201   0.000777   0.002149   0.000148   0.000205
    13  H    0.500996  -0.000170   0.000065   0.001016   0.000000  -0.000020
    14  H   -0.000170   0.551282  -0.000577   0.006244  -0.000658   0.002145
    15  H    0.000065  -0.000577   0.460261  -0.005671  -0.003435   0.006320
    16  H    0.001016   0.006244  -0.005671   0.496769  -0.010321  -0.004112
    17  H    0.000000  -0.000658  -0.003435  -0.010321   0.462697  -0.005613
    18  H   -0.000020   0.002145   0.006320  -0.004112  -0.005613   0.461404
    19  H    0.000000   0.000077  -0.000036   0.000022  -0.000520  -0.000064
    20  H    0.000000   0.000574   0.000046   0.000083  -0.000071   0.001690
    21  H   -0.000000  -0.000123  -0.000062  -0.000140   0.002582  -0.000592
    22  H    0.000011  -0.023237   0.001766   0.000555  -0.000126   0.001011
    23  H    0.000000  -0.000325   0.000011  -0.000000   0.000049  -0.000024
    24  C   -0.003655   0.042114   0.012283   0.012720  -0.001131   0.011096
    25  H    0.000121  -0.000944  -0.000135  -0.000013  -0.000012  -0.000119
    26  H    0.000418  -0.000420   0.000153  -0.000090   0.000002   0.000023
    27  H    0.001951   0.000814   0.000024   0.000018   0.000000   0.000017
              19         20         21         22         23         24
     1  C   -0.000341  -0.000748   0.000737  -0.001160   0.000141  -0.654694
     2  C    0.005064   0.005682  -0.006536  -0.003297  -0.004054   1.522166
     3  C    0.001091   0.006962  -0.004831   0.016915   0.002414  -1.532892
     4  C   -0.002713  -0.012312   0.026455  -0.008925   0.003494  -0.181177
     5  C   -0.034287  -0.027507   0.047316   0.008121  -0.022171  -0.101759
     6  C   -0.150678   0.109665  -0.046604   0.035969   0.101790   0.133712
     7  C    0.450055   0.346917   0.361440  -0.002101   0.028669   0.026048
     8  C    0.087921  -0.085843  -0.000444   0.351979  -0.098578  -0.273567
     9  C    0.003198   0.011257  -0.005252  -0.044157   0.314845   0.014750
    10  O    0.001794   0.000067   0.000037  -0.002501  -0.032991   0.002608
    11  H   -0.000000  -0.000002  -0.000000   0.000038  -0.000000   0.038825
    12  H    0.000000   0.000000  -0.000000  -0.000093   0.000000  -0.023283
    13  H    0.000000   0.000000  -0.000000   0.000011   0.000000  -0.003655
    14  H    0.000077   0.000574  -0.000123  -0.023237  -0.000325   0.042114
    15  H   -0.000036   0.000046  -0.000062   0.001766   0.000011   0.012283
    16  H    0.000022   0.000083  -0.000140   0.000555  -0.000000   0.012720
    17  H   -0.000520  -0.000071   0.002582  -0.000126   0.000049  -0.001131
    18  H   -0.000064   0.001690  -0.000592   0.001011  -0.000024   0.011096
    19  H    0.522047  -0.015979  -0.029939  -0.000121  -0.001336   0.000260
    20  H   -0.015979   0.467462  -0.023447  -0.000152  -0.001446   0.001136
    21  H   -0.029939  -0.023447   0.493988  -0.000089   0.001405  -0.000266
    22  H   -0.000121  -0.000152  -0.000089   0.500402   0.002379  -0.000150
    23  H   -0.001336  -0.001446   0.001405   0.002379   0.533279  -0.000306
    24  C    0.000260   0.001136  -0.000266  -0.000150  -0.000306   6.524946
    25  H    0.000000  -0.000001  -0.000000   0.000149  -0.000000   0.376055
    26  H    0.000000   0.000000  -0.000000  -0.000221   0.000000   0.417362
    27  H    0.000000  -0.000000   0.000000   0.000017  -0.000000   0.395480
              25         26         27
     1  C   -0.003142  -0.002060   0.003534
     2  C    0.090786   0.015865  -0.199427
     3  C   -0.103383  -0.065314   0.162658
     4  C    0.003851   0.010402   0.003431
     5  C    0.007680  -0.007485   0.000698
     6  C   -0.004697   0.009237  -0.002287
     7  C   -0.000324   0.000703  -0.000284
     8  C    0.000200  -0.006641   0.003121
     9  C   -0.000274  -0.003241   0.000618
    10  O    0.000004   0.000016   0.000000
    11  H    0.000732  -0.000318   0.000034
    12  H   -0.000211  -0.000092   0.000269
    13  H    0.000121   0.000418   0.001951
    14  H   -0.000944  -0.000420   0.000814
    15  H   -0.000135   0.000153   0.000024
    16  H   -0.000013  -0.000090   0.000018
    17  H   -0.000012   0.000002   0.000000
    18  H   -0.000119   0.000023   0.000017
    19  H    0.000000   0.000000   0.000000
    20  H   -0.000001   0.000000  -0.000000
    21  H   -0.000000  -0.000000   0.000000
    22  H    0.000149  -0.000221   0.000017
    23  H   -0.000000   0.000000  -0.000000
    24  C    0.376055   0.417362   0.395480
    25  H    0.491310  -0.027174  -0.022503
    26  H   -0.027174   0.494494  -0.023106
    27  H   -0.022503  -0.023106   0.509335
 Mulliken charges:
               1
     1  C   -0.871586
     2  C    0.097616
     3  C    0.279183
     4  C   -0.165609
     5  C   -0.909480
     6  C    0.881045
     7  C   -0.679752
     8  C   -0.354080
     9  C   -0.111059
    10  O   -0.406782
    11  H    0.208493
    12  H    0.175889
    13  H    0.168822
    14  H    0.165377
    15  H    0.215064
    16  H    0.181438
    17  H    0.219551
    18  H    0.214838
    19  H    0.164487
    20  H    0.215965
    21  H    0.184367
    22  H    0.167022
    23  H    0.172755
    24  C   -0.758682
    25  H    0.192045
    26  H    0.187487
    27  H    0.165587
 Sum of Mulliken charges =  -0.00000
 Mulliken charges with hydrogens summed into heavy atoms:
               1
     1  C   -0.318382
     2  C    0.097616
     3  C    0.444560
     4  C    0.230893
     5  C   -0.475091
     6  C    0.881045
     7  C   -0.114933
     8  C   -0.187058
     9  C    0.061695
    10  O   -0.406782
    24  C   -0.213562
 APT charges:
               1
     1  C   -1.453085
     2  C    0.658754
     3  C   -0.898574
     4  C   -0.283504
     5  C   -0.978307
     6  C    0.176059
     7  C   -1.499063
     8  C    0.016697
     9  C   -0.441955
    10  O   -0.275865
    11  H    0.302795
    12  H    0.278974
    13  H    0.693799
    14  H    0.187507
    15  H    0.278169
    16  H    0.493555
    17  H    0.534700
    18  H    0.259977
    19  H    0.470239
    20  H    0.341991
    21  H    0.536706
    22  H    0.121177
    23  H    0.593730
    24  C   -1.345748
    25  H    0.217071
    26  H    0.307576
    27  H    0.706624
 Sum of APT charges =  -0.00000
 APT charges with hydrogens summed into heavy atoms:
               1
     1  C   -0.177518
     2  C    0.658754
     3  C   -0.711067
     4  C    0.488220
     5  C   -0.183630
     6  C    0.176059
     7  C   -0.150126
     8  C    0.137874
     9  C    0.151776
    10  O   -0.275865
    24  C   -0.114477
 Electronic spatial extent (au):  <R**2>=           2429.5401
 Charge=             -0.0000 electrons
 Dipole moment (field-independent basis, Debye):
    X=             -1.4823    Y=             -5.5899    Z=              2.0015  Tot=              6.1196
 Quadrupole moment (field-independent basis, Debye-Ang):
   XX=            -67.5103   YY=            -77.7061   ZZ=            -69.3734
   XY=            -12.1844   XZ=              5.1227   YZ=              3.6390
 Traceless Quadrupole moment (field-independent basis, Debye-Ang):
   XX=              4.0196   YY=             -6.1762   ZZ=              2.1565
   XY=            -12.1844   XZ=              5.1227   YZ=              3.6390
 Octapole moment (field-independent basis, Debye-Ang**2):
  XXX=             -1.6755  YYY=            -34.5628  ZZZ=              2.9418  XYY=            -28.2990
  XXY=            -31.0902  XXZ=             18.5680  XZZ=              3.2785  YZZ=             -2.7888
  YYZ=              7.5083  XYZ=              7.5211
 Hexadecapole moment (field-independent basis, Debye-Ang**3):
 XXXX=          -2157.7746 YYYY=           -884.3537 ZZZZ=           -248.6126 XXXY=            -83.3158
 XXXZ=             37.3316 YYYX=            -83.4476 YYYZ=             19.0212 ZZZX=              4.3895
 ZZZY=             -3.0556 XXYY=           -592.5181 XXZZ=           -422.8128 YYZZ=           -182.3183
 XXYZ=             26.0676 YYXZ=             21.4363 ZZXY=              1.2001
 N-N= 6.059478595343D+02 E-N=-2.294771802175D+03  KE= 4.648426375398D+02
  Exact polarizability:       0.000       0.000       0.000       0.000       0.000       0.000
 Approx polarizability:     141.480       5.822     158.666      -4.662     -10.978     118.247
 D2PCM: C-PCM CHGder 2nd derivatives, FixD1E=F FixD2E=F DoIter=F DoCFld=F I1PDM=0
 Calling FoFJK, ICntrl=    100127 FMM=F ISym2X=0 I1Cent= 0 IOpClX= 0 NMat=1 NMatS=1 NMatT=0.
 ***** Axes restored to original set *****
 -------------------------------------------------------------------
 Center     Atomic                   Forces (Hartrees/Bohr)
 Number     Number              X              Y              Z
 -------------------------------------------------------------------
      1        6          -0.004333605    0.009154709    0.005451566
      2        6          -0.001997747    0.018453066    0.017506095
      3        6          -0.006752465    0.014260633    0.010398754
      4        6           0.005935880    0.004366547    0.019159223
      5        6           0.003739269    0.011866720   -0.004715934
      6        6           0.009536213   -0.008800289    0.001501501
      7        6          -0.004626554   -0.006121648   -0.004377500
      8        6           0.033730454    0.025133378   -0.009383281
      9        6          -0.046831304    0.070283681   -0.021447699
     10        8           0.017218178   -0.044534107    0.010387900
     11        1          -0.002414559   -0.016299361    0.005990391
     12        1          -0.007067101   -0.004264143   -0.012219591
     13        1          -0.014919776    0.001546166    0.004244057
     14        1          -0.008923233    0.004340135    0.012269150
     15        1          -0.009756758   -0.000927996   -0.024555575
     16        1          -0.008483428   -0.004503097   -0.019451143
     17        1           0.002182429   -0.026829946   -0.000987325
     18        1          -0.001501208   -0.025407588    0.008758693
     19        1           0.011654288   -0.005149564   -0.000552219
     20        1           0.001922096   -0.005999918    0.015885824
     21        1           0.003133333   -0.014984168   -0.004457718
     22        1           0.018412237    0.013051697   -0.011016447
     23        1           0.014074550   -0.000357491    0.005096096
     24        6          -0.003579203   -0.024535855   -0.020046814
     25        1           0.008675848   -0.000683976    0.012322227
     26        1           0.003024714    0.013858849   -0.003661816
     27        1          -0.012052549    0.003083565    0.007901584
 -------------------------------------------------------------------
 Cartesian Forces:  Max     0.070283681 RMS     0.015986898
 FormGI is forming the generalized inverse of G from B-inverse, IUseBI=4.

 GradGradGradGradGradGradGradGradGradGradGradGradGradGradGradGradGradGrad
 Berny optimization.
 Internal  Forces:  Max     0.104266689 RMS     0.022216092
 Search for a local minimum.
 Step number   1 out of a maximum of  132
 All quantities printed in internal units (Hartrees-Bohrs-Radians)
 Mixed Optimization -- RFO/linear search
 Second derivative matrix not updated -- analytic derivatives used.
 ITU=  0
     Eigenvalues ---   -0.01482  -0.00529  -0.00334  -0.00283  -0.00018
     Eigenvalues ---    0.00113   0.00465   0.01418   0.01665   0.02155
     Eigenvalues ---    0.02246   0.02900   0.03501   0.04565   0.04816
     Eigenvalues ---    0.05072   0.05571   0.05766   0.05808   0.05826
     Eigenvalues ---    0.05860   0.05960   0.06352   0.07154   0.07405
     Eigenvalues ---    0.08154   0.10292   0.10907   0.11181   0.12162
     Eigenvalues ---    0.13003   0.13164   0.13325   0.14304   0.14555
     Eigenvalues ---    0.14763   0.14841   0.14986   0.15071   0.15856
     Eigenvalues ---    0.19062   0.19392   0.20532   0.22702   0.23900
     Eigenvalues ---    0.28114   0.29256   0.30954   0.33428   0.33994
     Eigenvalues ---    0.34992   0.36022   0.37147   0.37781   0.38202
     Eigenvalues ---    0.38519   0.38669   0.38737   0.38782   0.38807
     Eigenvalues ---    0.38877   0.38913   0.39074   0.39079   0.39416
     Eigenvalues ---    0.39536   0.39593   0.39616   0.42337   0.45863
     Eigenvalues ---    0.55811   0.66447   0.74758   0.86976   1.55834
 RFO step:  Lambda=-7.07863937D-02 EMin=-1.48185144D-02
 Linear search not attempted -- first point.
 Maximum step size (   0.300) exceeded in Quadratic search.
    -- Step size scaled by   0.800
 Iteration  1 RMS(Cart)=  0.23830474 RMS(Int)=  0.01682828
 Iteration  2 RMS(Cart)=  0.04671336 RMS(Int)=  0.00082364
 Iteration  3 RMS(Cart)=  0.00110145 RMS(Int)=  0.00062633
 Iteration  4 RMS(Cart)=  0.00000074 RMS(Int)=  0.00062633
 Variable       Old X    -DE/DX   Delta X   Delta X   Delta X     New X
                                 (Linear)    (Quad)   (Total)
    R1        2.79571   0.02772   0.00000   0.04097   0.04097   2.83669
    R2        2.02206   0.01674   0.00000   0.02914   0.02914   2.05121
    R3        2.02202   0.01330   0.00000   0.02493   0.02493   2.04696
    R4        2.02204   0.01460   0.00000   0.02463   0.02463   2.04666
    R5        2.48267   0.03851   0.00000   0.03238   0.03238   2.51505
    R6        2.91019  -0.00809   0.00000  -0.02404  -0.02404   2.88615
    R7        2.77864   0.04952   0.00000   0.04366   0.04366   2.82230
    R8        2.02195  -0.00133   0.00000   0.01848   0.01848   2.04043
    R9        2.83417   0.05435   0.00000   0.06384   0.06384   2.89801
   R10        2.02199   0.01660   0.00000   0.03058   0.03058   2.05257
   R11        2.02200   0.01025   0.00000   0.02154   0.02154   2.04353
   R12        2.77952   0.05843   0.00000   0.03308   0.03308   2.81260
   R13        2.02190   0.01735   0.00000   0.02832   0.02832   2.05022
   R14        2.02206   0.01796   0.00000   0.03273   0.03273   2.05478
   R15        2.79113   0.02718   0.00000   0.02817   0.02817   2.81930
   R16        2.48023   0.06709   0.00000   0.04178   0.04178   2.52201
   R17        2.02199   0.00647   0.00000   0.02029   0.02029   2.04228
   R18        2.02196   0.01663   0.00000   0.02953   0.02953   2.05149
   R19        2.02201   0.01543   0.00000   0.02676   0.02676   2.04877
   R20        2.76904  -0.00034   0.00000  -0.00895  -0.00895   2.76008
   R21        2.02208  -0.00636   0.00000   0.01034   0.01034   2.03242
   R22        2.37633  -0.04652   0.00000  -0.05977  -0.05977   2.31657
   R23        2.02207   0.01360   0.00000   0.03319   0.03319   2.05526
   R24        2.02195   0.01478   0.00000   0.02717   0.02717   2.04912
   R25        2.02187   0.01446   0.00000   0.02617   0.02617   2.04804
   R26        2.02215   0.01421   0.00000   0.02436   0.02436   2.04651
    A1        1.91061   0.00494   0.00000   0.01711   0.01692   1.92753
    A2        1.91059   0.00710   0.00000   0.02637   0.02614   1.93673
    A3        1.91065   0.00500   0.00000   0.01186   0.01173   1.92238
    A4        1.91070  -0.00507   0.00000  -0.01781  -0.01808   1.89262
    A5        1.91064  -0.00588   0.00000  -0.01864  -0.01872   1.89192
    A6        1.91061  -0.00608   0.00000  -0.01888  -0.01905   1.89156
    A7        2.10003   0.02133   0.00000   0.03674   0.03669   2.13672
    A8        2.10270  -0.01703   0.00000  -0.03877  -0.03881   2.06389
    A9        2.08045  -0.00429   0.00000   0.00203   0.00198   2.08243
   A10        2.18657  -0.00159   0.00000   0.00925   0.00874   2.19530
   A11        2.04830  -0.01490   0.00000  -0.01665  -0.01715   2.03114
   A12        2.04832   0.01649   0.00000   0.00740   0.00687   2.05519
   A13        1.90296   0.05126   0.00000   0.08084   0.07927   1.98223
   A14        1.86528   0.00846   0.00000  -0.01074  -0.01364   1.85164
   A15        1.86527  -0.02643   0.00000   0.02495   0.02575   1.89102
   A16        1.86525  -0.00783   0.00000   0.03909   0.03756   1.90282
   A17        1.86526  -0.01152   0.00000  -0.04679  -0.04767   1.81759
   A18        2.09442  -0.00600   0.00000  -0.07166  -0.07147   2.02295
   A19        1.96857   0.10427   0.00000   0.07135   0.06977   2.03834
   A20        1.85118  -0.00423   0.00000   0.02366   0.02116   1.87234
   A21        1.85122  -0.03260   0.00000  -0.01249  -0.01210   1.83912
   A22        1.85118  -0.04412   0.00000   0.02208   0.01923   1.87040
   A23        1.85116  -0.00809   0.00000  -0.02249  -0.02234   1.82881
   A24        2.09440  -0.00132   0.00000  -0.07278  -0.07262   2.02178
   A25        2.10843  -0.07021   0.00000  -0.07023  -0.07024   2.03819
   A26        2.09432   0.06268   0.00000   0.00837   0.00836   2.10268
   A27        2.08044   0.00753   0.00000   0.06186   0.06184   2.14228
   A28        1.91060   0.01501   0.00000   0.04730   0.04702   1.95762
   A29        1.91067   0.00163   0.00000  -0.00735  -0.00741   1.90326
   A30        1.91062   0.00103   0.00000   0.00307   0.00275   1.91336
   A31        1.91066  -0.00504   0.00000  -0.01972  -0.01975   1.89091
   A32        1.91060  -0.00752   0.00000  -0.00260  -0.00312   1.90748
   A33        1.91066  -0.00511   0.00000  -0.02068  -0.02076   1.88991
   A34        2.12416   0.02677   0.00000   0.03997   0.03977   2.16393
   A35        2.07953   0.00721   0.00000   0.00152   0.00132   2.08085
   A36        2.07949  -0.03398   0.00000  -0.04149  -0.04168   2.03781
   A37        2.04209   0.01958   0.00000   0.06414   0.06412   2.10621
   A38        2.12055  -0.00367   0.00000  -0.03499  -0.03501   2.08555
   A39        2.12054  -0.01592   0.00000  -0.02915  -0.02916   2.09138
   A40        1.91062   0.00291   0.00000   0.01495   0.01483   1.92545
   A41        1.91071   0.00184   0.00000   0.01362   0.01350   1.92421
   A42        1.91059   0.00459   0.00000   0.01851   0.01836   1.92896
   A43        1.91066  -0.00275   0.00000  -0.01646  -0.01655   1.89411
   A44        1.91052  -0.00356   0.00000  -0.01765  -0.01778   1.89275
   A45        1.91068  -0.00302   0.00000  -0.01297  -0.01312   1.89756
    D1        1.35701   0.00026   0.00000   0.00347   0.00353   1.36054
    D2       -1.78447   0.00073   0.00000   0.02160   0.02169  -1.76277
    D3       -0.73743  -0.00089   0.00000  -0.00134  -0.00139  -0.73882
    D4        2.40428  -0.00043   0.00000   0.01680   0.01677   2.42106
    D5       -2.83178  -0.00086   0.00000  -0.00162  -0.00167  -2.83345
    D6        0.30993  -0.00039   0.00000   0.01651   0.01649   0.32642
    D7        0.00006  -0.00202   0.00000   0.05555   0.05554   0.05561
    D8       -3.14149  -0.00020   0.00000  -0.00630  -0.00584   3.13586
    D9        3.14154  -0.00248   0.00000   0.03765   0.03719  -3.10445
   D10       -0.00001  -0.00066   0.00000  -0.02421  -0.02420  -0.02421
   D11        2.02878  -0.00011   0.00000  -0.05375  -0.05356   1.97522
   D12       -2.15993  -0.00058   0.00000  -0.05642  -0.05627  -2.21620
   D13       -0.06545  -0.00034   0.00000  -0.05262  -0.05244  -0.11789
   D14       -1.11270   0.00035   0.00000  -0.03582  -0.03598  -1.14868
   D15        0.98177  -0.00012   0.00000  -0.03849  -0.03868   0.94309
   D16        3.07626   0.00012   0.00000  -0.03469  -0.03486   3.04140
   D17       -2.09460   0.00756   0.00000   0.19059   0.18970  -1.90490
   D18        2.17835  -0.01322   0.00000   0.11033   0.11016   2.28851
   D19       -0.08435   0.00574   0.00000   0.18916   0.18979   0.10544
   D20        1.04696   0.00574   0.00000   0.25244   0.25185   1.29880
   D21       -0.96328  -0.01504   0.00000   0.17218   0.17230  -0.79098
   D22        3.05720   0.00392   0.00000   0.25102   0.25193  -2.97405
   D23       -1.04766  -0.03631   0.00000   0.11612   0.11539  -0.93227
   D24       -3.06667  -0.03503   0.00000   0.03803   0.03620  -3.03047
   D25        0.97134  -0.01138   0.00000   0.11872   0.11752   1.08886
   D26        0.96259  -0.00502   0.00000   0.16424   0.16557   1.12816
   D27       -1.05641  -0.00374   0.00000   0.08614   0.08638  -0.97003
   D28        2.98160   0.01991   0.00000   0.16683   0.16770  -3.13389
   D29       -3.05791  -0.02487   0.00000   0.07127   0.07223  -2.98568
   D30        1.20627  -0.02359   0.00000  -0.00683  -0.00696   1.19931
   D31       -1.03891   0.00006   0.00000   0.07387   0.07436  -0.96455
   D32        3.14116  -0.01504   0.00000  -0.17103  -0.17185   2.96932
   D33       -0.00038  -0.02165   0.00000  -0.18137  -0.18186  -0.18224
   D34       -1.12301   0.00756   0.00000  -0.09199  -0.09163  -1.21464
   D35        2.01863   0.00096   0.00000  -0.10233  -0.10165   1.91698
   D36        1.12212  -0.02529   0.00000  -0.17961  -0.17964   0.94248
   D37       -2.01942  -0.03190   0.00000  -0.18996  -0.18966  -2.20908
   D38        2.76182  -0.00527   0.00000   0.11417   0.11435   2.87617
   D39       -1.42695  -0.00125   0.00000   0.11447   0.11445  -1.31250
   D40        0.66750  -0.00588   0.00000   0.08652   0.08635   0.75384
   D41       -0.37983   0.00129   0.00000   0.12443   0.12462  -0.25521
   D42        1.71460   0.00531   0.00000   0.12473   0.12471   1.83931
   D43       -2.47415   0.00068   0.00000   0.09678   0.09661  -2.37754
   D44        3.14158  -0.00144   0.00000   0.03618   0.03662  -3.10498
   D45       -0.00002  -0.00644   0.00000  -0.00149  -0.00147  -0.00150
   D46        0.00004  -0.00794   0.00000   0.02601   0.02599   0.02603
   D47       -3.14157  -0.01294   0.00000  -0.01166  -0.01210   3.12952
   D48        3.14154  -0.00211   0.00000  -0.00385  -0.00363   3.13791
   D49        0.00000  -0.00388   0.00000   0.00634   0.00656   0.00657
   D50       -0.00003   0.00289   0.00000   0.03382   0.03360   0.03357
   D51       -3.14158   0.00112   0.00000   0.04402   0.04380  -3.09778
         Item               Value     Threshold  Converged?
 Maximum Force            0.104267     0.000450     NO 
 RMS     Force            0.022216     0.000300     NO 
 Maximum Displacement     0.705551     0.001800     NO 
 RMS     Displacement     0.268859     0.001200     NO 
 Predicted change in Energy=-4.154969D-02
 GradGradGradGradGradGradGradGradGradGradGradGradGradGradGradGradGradGrad

                          Input orientation:                          
 ---------------------------------------------------------------------
 Center     Atomic      Atomic             Coordinates (Angstroms)
 Number     Number       Type             X           Y           Z
 ---------------------------------------------------------------------
      1          6           0       -3.419872   -0.766576    1.118495
      2          6           0       -2.399889    0.334679    1.132686
      3          6           0       -1.348276    0.343925    0.317001
      4          6           0       -1.060784   -0.662262   -0.748580
      5          6           0        0.126215   -1.577352   -0.423835
      6          6           0        1.408169   -0.911469   -0.065471
      7          6           0        2.493296   -1.785274    0.468160
      8          6           0        1.557920    0.403912   -0.234212
      9          6           0        2.794258    1.127907    0.049646
     10          8           0        2.865926    2.338228   -0.131335
     11          1           0       -3.040415   -1.641401    1.637048
     12          1           0       -3.668908   -1.051161    0.103448
     13          1           0       -4.326371   -0.441778    1.614234
     14          1           0       -0.679047    1.186512    0.406666
     15          1           0       -0.834505   -0.093939   -1.646120
     16          1           0       -1.903451   -1.336605   -0.816266
     17          1           0        0.315386   -2.184028   -1.303170
     18          1           0       -0.164738   -2.119765    0.472519
     19          1           0        3.455655   -1.293654    0.456069
     20          1           0        2.259775   -2.053883    1.493757
     21          1           0        2.548870   -2.695825   -0.117689
     22          1           0        0.741262    0.978363   -0.633962
     23          1           0        3.661472    0.583462    0.416238
     24          6           0       -2.574112    1.468488    2.141016
     25          1           0       -1.777325    1.444421    2.876109
     26          1           0       -2.547771    2.427002    1.635921
     27          1           0       -3.520739    1.374172    2.658527
 ---------------------------------------------------------------------
                    Distance matrix (angstroms):
                    1          2          3          4          5
     1  C    0.000000
     2  C    1.501110   0.000000
     3  C    2.483368   1.330909   0.000000
     4  C    3.010340   2.515205   1.493495   0.000000
     5  C    3.951060   3.529848   2.532641   1.533563   0.000000
     6  C    4.973204   4.182078   3.052915   2.573805   1.488366
     7  C    6.035415   5.373924   4.394771   3.920854   2.538101
     8  C    5.289449   4.187774   2.958616   2.873832   2.451764
     9  C    6.583837   5.364825   4.224535   4.324722   3.828977
    10  O    7.121316   5.774147   4.683775   4.980259   4.787833
    11  H    1.085452   2.137650   2.923591   3.250981   3.778741
    12  H    1.083203   2.142497   2.716101   2.771191   3.867539
    13  H    1.083047   2.132160   3.342034   4.036776   5.026805
    14  H    3.439967   2.052808   1.079750   2.213206   2.996185
    15  H    3.844432   3.218059   2.075940   1.086172   2.148832
    16  H    2.523443   2.614967   2.101593   1.081392   2.081227
    17  H    4.671807   4.432832   3.432677   2.125367   1.084929
    18  H    3.583896   3.384674   2.737649   2.101975   1.087343
    19  H    6.927445   6.115282   5.077279   4.716785   3.455415
    20  H    5.835785   5.248626   4.489129   4.241557   2.907976
    21  H    6.393437   5.936127   4.961530   4.190824   2.685882
    22  H    4.840553   3.660902   2.381808   2.439704   2.637066
    23  H    7.243011   6.108625   5.016454   5.020790   4.227634
    24  C    2.599301   1.527287   2.468673   3.896155   4.811171
    25  H    3.267365   2.158387   2.818547   4.253224   4.862531
    26  H    3.350706   2.157065   2.741814   4.176185   5.237141
    27  H    2.639067   2.159871   3.356151   4.669778   5.613620
                    6          7          8          9         10
     6  C    0.000000
     7  C    1.491910   0.000000
     8  C    1.334589   2.482095   0.000000
     9  C    2.468511   2.958439   1.460574   0.000000
    10  O    3.562292   4.183482   2.337315   1.225874   0.000000
    11  H    4.818846   5.657646   5.369321   6.650739   7.338222
    12  H    5.081806   6.216485   5.436081   6.820831   7.365265
    13  H    5.993911   7.044595   6.225497   7.457559   7.905984
    14  H    2.996817   4.347304   2.455037   3.492097   3.765997
    15  H    2.862935   4.290111   2.822239   4.187654   4.680085
    16  H    3.422172   4.602438   3.917815   5.375136   6.059743
    17  H    2.084582   2.835473   3.063331   4.352451   5.322523
    18  H    2.055103   2.679001   3.136234   4.413825   5.424322
    19  H    2.147153   1.080728   2.638109   2.542948   3.726043
    20  H    2.112234   1.085602   3.085326   3.534815   4.722180
    21  H    2.118454   1.084163   3.256368   3.835250   5.044046
    22  H    2.083126   3.452823   1.075511   2.168980   2.572171
    23  H    2.746678   2.641637   2.209131   1.087599   2.002981
    24  C    5.137251   6.250123   4.883515   5.771414   5.959366
    25  H    4.934621   5.870891   4.677672   5.384092   5.603873
    26  H    5.448815   6.672277   4.944389   5.721991   5.695541
    27  H    6.077702   7.137816   5.924704   6.837111   7.035782
                   11         12         13         14         15
    11  H    0.000000
    12  H    1.759351   0.000000
    13  H    1.758778   1.756725   0.000000
    14  H    3.884198   3.746784   4.172831   0.000000
    15  H    4.247336   3.465703   4.789992   2.424387   0.000000
    16  H    2.721091   2.011016   3.546630   3.059550   1.837259
    17  H    4.494522   4.374535   5.752615   3.908066   2.410049
    18  H    3.139185   3.682029   4.630156   3.346688   3.006857
    19  H    6.611700   7.137404   7.913720   4.821766   4.925849
    20  H    5.318148   6.171523   6.781646   4.507616   4.824394
    21  H    5.952396   6.435415   7.439705   5.076114   4.533557
    22  H    5.130471   4.910431   5.722943   1.772995   2.158086
    23  H    7.166289   7.516934   8.141987   4.382222   4.992595
    24  C    3.184781   3.420364   2.645188   2.584328   4.450821
    25  H    3.557102   4.182543   3.412874   2.714936   4.868882
    26  H    4.098122   3.962706   3.375468   2.557735   4.479086
    27  H    3.219909   3.525993   2.244385   3.630607   5.282157
                   16         17         18         19         20
    16  H    0.000000
    17  H    2.424549   0.000000
    18  H    2.301615   1.840576   0.000000
    19  H    5.508240   3.707962   3.713486   0.000000
    20  H    4.814888   3.408869   2.631641   1.756380   0.000000
    21  H    4.707297   2.579874   2.836169   1.765656   1.758529
    22  H    3.519491   3.260357   3.412262   3.703804   4.003447
    23  H    6.014491   4.670295   4.685135   1.888786   3.175120
    24  C    4.130841   5.792451   4.632982   6.842994   6.016021
    25  H    4.624245   5.917048   4.591417   6.382612   5.517899
    26  H    4.537962   6.172318   5.263595   7.160758   6.573510
    27  H    4.694477   6.562902   5.314976   7.787053   6.820747
                   21         22         23         24         25
    21  H    0.000000
    22  H    4.127183   0.000000
    23  H    3.503810   3.128338   0.000000
    24  C    6.977692   4.351141   6.529980   0.000000
    25  H    6.694806   4.345237   6.030981   1.084348   0.000000
    26  H    7.436010   4.250724   6.590976   1.083773   1.759863
    27  H    7.817442   5.400167   7.565530   1.082966   1.758342
                   26         27
    26  H    0.000000
    27  H    1.760921   0.000000
 Stoichiometry    C10H16O
 Framework group  C1[X(C10H16O)]
 Deg. of freedom    75
 Full point group                 C1      NOp   1
 Largest Abelian subgroup         C1      NOp   1
 Largest concise Abelian subgroup C1      NOp   1
                         Standard orientation:                         
 ---------------------------------------------------------------------
 Center     Atomic      Atomic             Coordinates (Angstroms)
 Number     Number       Type             X           Y           Z
 ---------------------------------------------------------------------
      1          6           0       -3.511530   -0.636852    0.134076
      2          6           0       -2.485556    0.458622    0.108709
      3          6           0       -1.279146    0.294178   -0.428741
      4          6           0       -0.794232   -0.933763   -1.126987
      5          6           0        0.260947   -1.714139   -0.333622
      6          6           0        1.451740   -0.950998    0.129910
      7          6           0        2.362521   -1.642972    1.087744
      8          6           0        1.677252    0.287075   -0.314439
      9          6           0        2.842021    1.087378    0.054484
     10          8           0        2.990809    2.218751   -0.393428
     11          1           0       -3.285060   -1.350165    0.920270
     12          1           0       -3.537588   -1.165444   -0.811037
     13          1           0       -4.494705   -0.222819    0.320981
     14          1           0       -0.620016    1.148869   -0.398579
     15          1           0       -0.355978   -0.595471   -2.061472
     16          1           0       -1.621874   -1.624063   -1.215878
     17          1           0        0.621416   -2.511718   -0.974716
     18          1           0       -0.239235   -2.029122    0.579022
     19          1           0        3.318692   -1.146424    1.172294
     20          1           0        1.898320   -1.659668    2.068953
     21          1           0        2.517828   -2.667043    0.767480
     22          1           0        0.988733    0.727651   -1.013408
     23          1           0        3.588138    0.669035    0.726176
     24          6           0       -2.843284    1.799080    0.747306
     25          1           0       -2.231095    1.973268    1.625197
     26          1           0       -2.674645    2.606415    0.044215
     27          1           0       -3.883808    1.811034    1.047279
 ---------------------------------------------------------------------
 Rotational constants (GHZ):           1.4946255           0.5694920           0.4607415
 Standard basis: 6-311+G(d,p) (5D, 7F)
 There are   349 symmetry adapted cartesian basis functions of A   symmetry.
 There are   338 symmetry adapted basis functions of A   symmetry.
   338 basis functions,   524 primitive gaussians,   349 cartesian basis functions
    42 alpha electrons       42 beta electrons
       nuclear repulsion energy       594.0201006757 Hartrees.
 NAtoms=   27 NActive=   27 NUniq=   27 SFac= 1.00D+00 NAtFMM=   60 NAOKFM=F Big=F
 Integral buffers will be    131072 words long.
 Raffenetti 2 integral format.
 Two-electron integral symmetry is turned on.
 ------------------------------------------------------------------------------
 Polarizable Continuum Model (PCM)
 =================================
 Model                : C-PCM.
 Atomic radii         : UFF (Universal Force Field).
 Polarization charges : Total charges.
 Charge compensation  : None.
 Solution method      : Matrix inversion.
 Cavity type          : Scaled VdW (van der Waals Surface) (Alpha=1.100).
 Cavity algorithm     : GePol (No added spheres)
                        Default sphere list used, NSphG=   27.
                        Lebedev-Laikov grids with approx.  5.0 points / Ang**2.
                        Smoothing algorithm: York/Karplus (Gamma=1.0000).
[...]
 000093,-0.00001109,0.00004374,0.00001305,-0.00009063,0.00001643,-0.000
 05898,0.00002779,0.00001481,-0.00002415,-0.00022611,0.00021819,-0.0001
 0867,0.00007977,0.00043255,-0.00019348,-0.00282606,-0.00255960,0.00875
 039,0.01539405,0.05301835,0.00001332,0.00000897,0.00001616,-0.00001330
 ,0.00002356,-0.00005633,-0.00014349,0.00004867,-0.00002659,-0.00026159
 ,-0.00003716,0.00043554,0.00050592,0.00063234,0.00041439,0.00423718,0.
 00433845,-0.01408717,0.09054008,0.03956649,-0.26953752,-0.00129824,-0.
 00039293,-0.00008946,-0.00050956,-0.00059285,-0.00039548,0.00031964,0.
 00042734,-0.00007394,-0.00000477,-0.00000750,0.00000517,-0.00000651,-0
 .00000477,-0.00000721,-0.00000038,-0.00000599,-0.00000243,0.00001977,-
 0.00003125,-0.00000760,0.00013805,-0.00008566,0.00005993,-0.00003802,0
 .00001010,-0.00000031,0.00015798,0.00010466,0.00022136,-0.00057162,-0.
 00041299,0.00026760,-0.00132414,-0.00096592,0.00424812,-0.09733918,-0.
 04585355,0.29256824,0.00000862,-0.00000403,0.00001165,-0.00001418,-0.0
 0002120,-0.00001518,-0.00003619,0.00002712,0.00008707,0.00016616,-0.00
 005994,0.00013354,0.00025648,0.00034163,-0.00059055,0.00076886,0.01524
 096,0.01177930,-0.04877033,-0.00954555,-0.00760150,-0.00063211,0.00217
 421,-0.00176858,-0.00265205,-0.00055055,-0.00041003,0.00073074,0.00021
 500,0.00037268,-0.00000341,0.00000279,-0.00000079,-0.00001628,-0.00000
 784,-0.00000033,0.00000659,-0.00000210,-0.00000663,0.00003525,-0.00004
 517,-0.00003291,0.00006789,-0.00006967,0.00005830,0.00004320,-0.000033
 26,0.00000883,-0.00066047,0.00035071,-0.00044022,-0.00001061,-0.000120
 26,0.00030235,0.00079570,-0.02620002,-0.01550768,-0.00039921,0.0105555
 5,0.00570678,0.04889077,-0.00000658,0.00000473,-0.00001435,0.00002017,
 0.00003182,0.00004774,-0.00010512,-0.00000344,-0.00007924,-0.00002585,
 0.00013626,0.00048949,-0.00179557,0.00080649,-0.00082138,0.00012823,-0
 .02345549,-0.00890233,-0.00987767,-0.24718412,-0.11823361,0.00287641,0
 .00001621,0.00122492,0.00081596,0.00060035,-0.00053064,-0.00037043,-0.
 00076308,0.00016203,0.00000085,0.00000060,0.00000003,0.00000008,0.0000
 0098,-0.00000071,-0.00000315,-0.00000187,-0.00000009,-0.00001852,0.000
 04804,0.00002268,-0.00000763,0.00001531,-0.00007566,0.00001006,-0.0000
 1587,-0.00002450,0.00040555,0.00052627,0.00045416,0.00021623,-0.000031
 02,0.00011486,0.00002075,-0.00672516,-0.00340273,0.00026306,0.00522272
 ,0.00265610,0.00794750,0.27107934,0.00000061,0.00000525,-0.00000185,-0
 .00000376,0.00001543,-0.00003907,-0.00007195,-0.00000901,0.00002549,0.
 00022168,0.00009957,0.00006069,0.00015741,0.00023601,0.00021675,0.0001
 0604,0.01724619,0.00787135,-0.00636459,-0.11821083,-0.10761592,-0.0016
 8848,0.00070677,-0.00157540,-0.00034679,0.00038929,0.00056328,0.000093
 72,-0.00005105,-0.00006524,0.00000222,-0.00000182,0.00000148,-0.000001
 08,-0.00000216,0.00000208,-0.00000062,-0.00000249,-0.00000060,0.000025
 75,-0.00001057,-0.00000700,0.00000727,0.00000213,0.00000837,0.00002755
 ,-0.00003761,0.00000954,-0.00035607,0.00015839,-0.00020462,0.00015905,
 -0.00022855,0.00006063,0.00008019,0.00017933,-0.00145480,-0.00162287,-
 0.02634330,-0.01462328,0.00902015,0.12573248,0.11786994,0.00010675,-0.
 00007996,0.00001200,0.00002091,0.00000307,-0.00002352,-0.00133977,-0.0
 0035390,0.00032309,-0.00149522,-0.00143673,0.00027423,-0.00114337,0.00
 033331,0.00186855,0.00960114,-0.00519221,0.00440607,0.00078612,-0.0034
 5369,-0.00285480,-0.17132969,0.11011175,-0.09147120,-0.01736731,0.0196
 3076,-0.01486584,0.00385399,-0.00051242,0.00249029,-0.00000842,0.00002
 314,0.00000370,-0.00002781,0.00001975,0.00003653,0.00003531,0.00004210
 ,-0.00001422,-0.00105656,0.00018848,0.00060596,-0.00165625,-0.00107660
 ,-0.00081490,0.00020548,0.00007044,0.00003675,0.00030343,0.00027429,0.
 00004286,-0.00020534,0.00009288,-0.00015491,0.00002467,-0.00017083,0.0
 0002814,-0.00038880,0.00050836,-0.00014645,0.00065315,-0.00066131,0.00
 051399,0.18395692,-0.00003598,0.00004604,-0.00010610,0.00000121,-0.000
 06168,0.00005684,0.00015726,0.00025353,0.00025029,-0.00041672,-0.00028
 608,0.00030410,0.00212540,-0.00037164,-0.00148628,0.01945553,-0.015742
 62,0.01416586,-0.00383963,-0.00102908,0.00233836,0.10994436,-0.1565568
 8,0.08530762,-0.01133136,0.00763851,-0.00595014,0.00196276,0.00157471,
 -0.00054628,0.00002695,0.00003804,-0.00003506,-0.00000435,-0.00003986,
 -0.00000572,0.00002912,0.00000871,-0.00001117,0.00031291,0.00031388,-0
 .00016300,-0.00087596,0.00006781,-0.00070140,0.00025913,0.00024264,-0.
 00032153,-0.00040047,-0.00018947,0.00002356,0.00016470,0.00028053,0.00
 001787,0.00005033,0.00028469,-0.00012207,0.00063796,-0.00106000,0.0005
 3633,0.00006533,-0.00038143,0.00022349,-0.11591520,0.16577648,0.000048
 38,-0.00002291,0.00021088,-0.00001469,-0.00018672,-0.00033290,0.000129
 46,0.00062248,-0.00012108,-0.00023514,-0.00012093,0.00030951,0.0012341
 3,-0.00200395,-0.00582071,-0.00335166,0.00467913,-0.00000333,-0.002396
 87,0.00330737,0.00915588,-0.09112463,0.08483027,-0.10023507,-0.0046565
 0,0.00582975,-0.00093700,0.00182276,-0.00130831,-0.00102384,-0.0000445
 7,-0.00007032,0.00001919,-0.00000428,-0.00002185,-0.00001757,-0.000026
 54,-0.00002932,-0.00001172,0.00060108,-0.00052531,-0.00013702,-0.00138
 804,-0.00068894,-0.00014496,0.00006449,-0.00014874,-0.00010833,-0.0009
 5598,-0.00066647,-0.00002524,0.00066453,0.00057147,0.00037424,-0.00008
 132,0.00010407,-0.00012980,0.00116069,-0.00151715,0.00060160,-0.001130
 99,0.00115627,-0.00111336,0.10139752,-0.09386478,0.09739256,-0.0000165
 6,-0.00000743,0.00002555,0.00001651,0.00000100,-0.00003915,0.00000519,
 -0.00005012,-0.00008883,-0.00000221,-0.00008412,-0.00008263,-0.0001833
 2,-0.00026106,0.00080666,-0.00020889,0.00176492,-0.00037788,-0.0006435
 8,0.00005739,0.00014256,-0.01186134,0.01498499,-0.01723289,-0.18745733
 ,0.08038184,-0.07977558,0.02107771,-0.00075738,0.00074685,-0.00000803,
 -0.00001641,0.00001124,0.00001195,0.00001690,0.00000388,-0.00001828,-0
 .00000573,0.00000980,0.00006852,-0.00006090,-0.00003628,0.00006565,-0.
 00002879,0.00018102,-0.00007520,-0.00006475,0.00008724,-0.00001639,-0.
 00000591,-0.00005320,-0.00027926,-0.00015971,0.00000478,0.00137069,-0.
 00116401,0.00022672,0.00022012,-0.00005989,0.00001296,0.00076377,0.000
 16275,0.00003415,-0.00355948,-0.00246936,-0.00162745,0.18076293,0.0000
 1491,-0.00000304,0.00002101,-0.00000832,-0.00001949,-0.00001530,-0.000
 01407,0.00003255,0.00001454,-0.00003285,0.00014085,-0.00011847,0.00028
 740,0.00001602,-0.00048387,0.00090571,-0.00039081,0.00015076,-0.000233
 87,-0.00181103,0.00050672,-0.00835939,0.01155708,-0.00108755,0.0855058
 4,-0.11149957,0.05267054,0.01837649,-0.04029798,0.02880005,-0.00000432
 ,-0.00000325,0.00000301,-0.00000634,-0.00000383,-0.00000309,0.00000154
 ,-0.00000341,-0.00000432,0.00001225,-0.00004656,-0.00002092,-0.0000419
 5,-0.00003981,0.00007439,0.00002706,-0.00005826,0.00004080,0.00002318,
 -0.00007722,0.00000750,0.00019154,0.00003931,0.00006078,-0.00192441,-0
 .00436763,0.00087796,0.00019938,0.00012745,0.00004183,-0.00025755,0.00
 007540,-0.00009321,-0.00247951,-0.00079021,0.00006317,-0.09217876,0.14
 742298,0.00001082,-0.00000543,0.00003493,0.00000330,-0.00000439,-0.000
 06311,-0.00007096,0.00007548,-0.00000682,0.00008110,0.00002287,0.00002
 931,0.00059212,-0.00081830,-0.00148892,0.00011283,0.00032271,-0.000941
 26,-0.00090643,0.00065733,0.00040007,-0.00851607,0.00843107,0.01113851
 ,-0.08188749,0.05050611,-0.11262105,-0.00593566,0.02102232,0.00998818,
 -0.00000885,-0.00001431,0.00000476,0.00000615,0.00000004,-0.00000580,-
 0.00000880,-0.00000435,0.00000032,-0.00002127,-0.00007717,0.00001035,0
 .00001699,-0.00000800,0.00003368,-0.00003303,-0.00000358,0.00000149,-0
 .00037955,-0.00025236,-0.00005424,0.00010958,0.00014169,0.00005238,0.0
 0090025,0.00126968,0.00076235,0.00051000,0.00006912,0.00005410,0.00003
 958,0.00000192,0.00000393,-0.00157364,0.00016731,0.00205241,0.09697767
 ,-0.08150225,0.09059130,0.00492396,-0.01093023,-0.00967361,-0.08355724
 ,0.01591897,0.02411362,-0.00192345,0.01408088,0.01972189,0.00580789,-0
 .00462645,0.00665002,0.00047410,-0.00111525,-0.00117300,0.00006160,0.0
 0004328,-0.00015029,-0.00005737,-0.00003583,0.00000627,-0.00014809,-0.
 00012390,0.00011661,0.00012312,0.00016974,0.00000552,-0.00005196,-0.00
 011499,0.00001311,0.00011888,-0.00013704,0.00016856,-0.00057633,-0.003
 76896,0.00014367,0.00079794,-0.00016302,-0.00041299,-0.00470159,0.0033
 9729,-0.00302687,-0.00026522,0.00117351,0.00127689,-0.00038502,0.00061
 568,0.00097185,0.00017060,-0.00017890,0.00008337,-0.00008943,0.0000447
 0,-0.00016070,-0.00002164,0.00001489,-0.00000864,0.00000403,0.00000054
 ,0.00000385,0.00000406,0.00000813,0.00000613,0.00000181,0.00007903,-0.
 00006894,-0.00002201,-0.00000470,-0.00001371,0.55187729,0.00428024,-0.
 02550035,-0.02238460,0.01838266,-0.15063633,-0.06844954,-0.00012420,0.
 00501881,-0.00080357,-0.00451246,0.00152396,-0.00078329,-0.00000190,0.
 00026065,0.00116871,0.00018682,0.00024928,0.00004732,-0.00006889,-0.00
 003831,-0.00003174,-0.00016152,-0.00010425,0.00001640,0.00018463,0.000
 18925,0.00002757,-0.00008103,-0.00015722,0.00001749,0.00071460,0.00106
 328,-0.00043816,-0.00237453,-0.00420732,0.00094231,0.00077488,0.001188
 75,-0.00053264,0.00091490,0.00011572,0.00343975,-0.00010722,0.00000915
 ,0.00023075,0.00016570,-0.00015619,-0.00008202,-0.00033358,0.00032459,
 -0.00008057,-0.00010076,0.00002519,-0.00003056,-0.00002903,0.00001113,
 -0.00002304,-0.00000116,0.00000364,-0.00001214,0.00000454,-0.00001079,
 -0.00000647,0.00007764,0.00003813,-0.00003597,-0.00002264,0.00000076,-
 0.00001360,0.03328079,0.55184611,-0.00095893,0.00007563,0.00457719,0.0
 2550583,-0.06490280,-0.14384892,0.01242667,-0.01984914,-0.02121573,0.0
 0584473,0.00001536,0.00445567,0.00046963,-0.00096382,-0.00159162,-0.00
 021494,-0.00023302,-0.00004641,0.00006675,0.00001116,0.00002494,0.0000
 7289,0.00010464,0.00007523,-0.00011019,-0.00009310,-0.00002541,0.00005
 177,0.00009430,-0.00000822,0.00018010,0.00029361,0.00019747,0.00107237
 ,0.00219868,0.00053694,0.00034432,0.00048783,-0.00003296,-0.00431848,0
 .00006412,-0.00230322,0.00020418,0.00009252,0.00000731,-0.00041604,0.0
 0016337,0.00039511,0.00040502,-0.00042969,0.00014263,0.00005824,-0.000
 05616,-0.00000092,0.00002217,-0.00000611,0.00002139,0.00001040,-0.0000
 0532,0.00000519,-0.00000523,0.00001784,0.00000424,-0.00006651,-0.00001
 488,-0.00001807,0.00001126,-0.00000396,0.00000448,-0.00114082,-0.03704
 055,0.51811751,0.00002824,-0.00050089,-0.00024301,0.00133039,-0.002848
 08,0.01026168,0.00005989,0.00098502,0.00090123,-0.00098164,0.00038504,
 -0.00043250,-0.00000922,0.00009915,0.00022080,0.00002379,0.00003577,0.
 00000706,-0.00001106,-0.00000210,-0.00000565,-0.00000723,-0.00002020,-
 0.00000761,0.00001364,0.00000849,-0.00000118,-0.00000604,-0.00000997,0
 .00000110,0.00005919,-0.00002219,-0.00021199,-0.00011252,-0.00004503,0
 .00005578,-0.00004341,0.00009066,-0.00009069,0.00064403,-0.00008494,0.
 00045287,-0.00001846,-0.00004155,-0.00000887,0.00006121,-0.00006333,-0
 .00010755,-0.00005847,0.00005889,-0.00003287,0.00000296,0.00001041,-0.
 00000708,-0.00000295,0.00000102,-0.00000376,-0.00000169,0.00000282,0.0
 0000319,0.00000089,-0.00000294,0.00000007,0.00001050,0.00000221,0.0000
 0562,-0.00000196,0.00000060,-0.00000034,-0.05960564,0.02021587,-0.0607
 0337,0.06272334,0.00015792,0.00095069,0.00021593,-0.00690484,0.0087120
 1,-0.02176602,0.00034213,-0.00165433,-0.00108517,0.00126070,-0.0003619
 7,0.00062559,0.00007912,-0.00004278,-0.00040340,-0.00007069,-0.0000988
 4,-0.00001079,0.00003142,0.00001552,0.00001582,0.00007749,0.00004663,-
 0.00001264,-0.00008108,-0.00008349,-0.00001099,0.00003558,0.00006870,-
 0.00000858,0.00011396,-0.00041843,0.00013325,0.00016456,0.00029130,0.0
 0015076,-0.00000143,-0.00000163,0.00005860,-0.00011507,0.00026930,-0.0
 0035188,0.00005880,0.00002339,-0.00004453,0.00002617,0.00004684,-0.000
 02273,0.00010755,-0.00012416,0.00002024,0.00000197,-0.00000816,0.00001
 350,0.00001327,-0.00000564,0.00001058,0.00000213,-0.00000052,0.0000038
 5,-0.00000168,0.00000488,0.00000089,-0.00002665,-0.00001819,0.00001922
 ,0.00001025,-0.00000013,0.00000623,0.02039908,-0.07757299,0.08050457,-
 0.02515965,0.08064310,0.00029460,0.00085409,0.00081580,-0.00282217,0.0
 0693144,-0.02245975,-0.00076723,-0.00280047,-0.00096695,0.00166474,-0.
 00044987,0.00102190,-0.00000816,-0.00010261,-0.00069945,-0.00013771,-0
 .00017929,-0.00005175,0.00005245,0.00003561,0.00002556,0.00015416,0.00
 009737,-0.00002142,-0.00015275,-0.00015689,-0.00001894,0.00006802,0.00
 012896,-0.00001651,-0.00023668,-0.00067902,0.00025518,0.00035590,-0.00
 008192,0.00022649,-0.00000159,-0.00001689,-0.00000965,-0.00075581,0.00
 017755,-0.00053390,0.00008886,-0.00000818,-0.00013257,-0.00011695,-0.0
 0003254,0.00003251,0.00022227,-0.00018428,0.00003664,-0.00001200,0.000
 02187,0.00001876,0.00002467,-0.00001032,0.00001736,0.00000127,-0.00000
 367,0.00000800,-0.00000638,0.00000600,0.00000311,-0.00004474,-0.000035
 62,0.00003761,0.00001965,-0.00000027,0.00001125,-0.06109687,0.08214934
 ,-0.26232503,0.06445730,-0.08656219,0.28803165,0.00050811,0.00077163,0
 .00115019,0.00256112,0.00730554,-0.00195420,0.00004157,0.00120729,0.00
 013867,0.00001064,0.00006225,-0.00026245,-0.00002247,0.00003991,-0.000
 00067,-0.00000740,-0.00001248,-0.00000344,0.00000535,0.00000368,0.0000
 0065,0.00002317,0.00001414,-0.00000222,-0.00002373,-0.00002838,-0.0000
 0478,0.00001029,0.00001841,-0.00000289,-0.00009447,-0.00029164,0.00020
 928,0.00048742,0.00021192,0.00019891,0.00038015,0.00021857,-0.00004097
 ,0.00010014,0.00006673,0.00023460,0.00003486,-0.00004784,-0.00004521,0
 .00002738,-0.00001635,-0.00002890,0.00000581,-0.00001097,-0.00000412,0
 .00000107,0.00000090,0.00000407,0.00000347,-0.00000185,0.00000200,0.00
 000034,-0.00000033,0.00000009,-0.00000050,-0.00000037,0.00000014,-0.00
 000802,-0.00000838,0.00000694,0.00000237,0.00000038,0.00000236,-0.1109
 7208,-0.11444064,0.02271034,0.00392993,0.00834376,-0.00080555,0.115770
 40,0.00181053,-0.00181702,-0.00447347,-0.01111543,-0.01915622,0.005547
 13,-0.00095748,0.00115033,0.00202221,0.00028166,0.00024663,0.00003592,
 -0.00002005,0.00003542,-0.00003461,-0.00003641,-0.00004990,-0.00002896
 ,0.00001494,0.00001188,0.00000603,0.00004873,0.00002287,-0.00000348,-0
 .00004527,-0.00003817,-0.00000227,0.00001908,0.00003581,-0.00000537,0.
 00015323,0.00038543,0.00006461,-0.00071649,-0.00123302,0.00017758,-0.0
 0006490,0.00030671,0.00009414,0.00065308,0.00076828,-0.00057934,0.0000
 2884,-0.00003276,-0.00004975,0.00000512,0.00009282,0.00010123,0.000024
 93,-0.00002278,-0.00002193,-0.00004754,0.00003536,-0.00000186,0.000006
 52,-0.00000265,0.00000399,0.00000031,-0.00000200,0.00000119,-0.0000020
 6,0.00000126,0.00000117,-0.00000130,-0.00000831,0.00000349,0.00000410,
 -0.00000077,0.00000202,-0.11237155,-0.24784091,0.03968389,-0.00416972,
 -0.00803618,0.00091467,0.12347339,0.26869103,0.00156935,-0.00265612,-0
 .00271895,-0.01229600,-0.01948675,0.00401574,-0.00102843,-0.00081620,0
 .00057577,-0.00013686,0.00014063,0.00017542,0.00000201,0.00003081,0.00
 005979,-0.00000584,0.00000531,-0.00000239,-0.00000071,0.00000079,-0.00
 000423,-0.00000469,0.00000044,0.00001426,0.00000034,0.00000825,-0.0000
 0091,-0.00000170,-0.00000338,0.00000121,0.00006066,-0.00021194,0.00017
 765,-0.00026170,-0.00121142,0.00024074,0.00021224,0.00024536,-0.000134
 36,0.00056246,0.00021194,-0.00041414,-0.00001947,0.00002718,0.00001600
 ,-0.00002029,0.00001117,0.00003674,-0.00001787,0.00001399,-0.00001052,
 -0.00003134,0.00001586,-0.00000622,-0.00000020,-0.00000007,-0.00000020
 ,-0.00000072,0.00000116,-0.00000036,0.00000041,0.,0.00000022,0.0000106
 5,0.00000494,-0.00000852,-0.00000196,-0.00000093,-0.00000134,0.0239365
 2,0.04260107,-0.05550158,0.01528065,0.02375035,-0.00348333,-0.02725534
 ,-0.04184328,0.05815652,0.00043283,-0.00047257,0.00004771,-0.00670130,
 0.00103182,0.00324134,0.00051574,0.00152457,-0.00016994,0.00037052,-0.
 00007598,0.00043716,0.00010217,-0.00016994,0.00002668,0.00005208,0.000
 08040,0.00000217,-0.00003029,-0.00002145,-0.00001095,-0.00009098,-0.00
 005239,0.00002442,0.00008521,0.00009245,0.00000893,-0.00003854,-0.0000
 7279,0.00001080,-0.00001388,-0.00007292,-0.00005244,0.00029253,-0.0000
 1051,0.00010322,0.00026708,0.00037548,-0.00019215,-0.00026836,0.000315
 08,-0.00034801,-0.00001526,0.00011792,0.00015349,-0.00012332,0.0000835
 8,0.00019321,-0.00005129,0.00004858,-0.00000398,-0.00001205,0.00000470
 ,-0.00003206,-0.00001339,0.00000676,-0.00000900,-0.00000045,0.00000252
 ,-0.00000156,0.00000322,-0.00000057,0.00000008,0.00002588,0.00002324,-
 0.00002799,-0.00001155,-0.00000026,-0.00000696,-0.30198822,0.04317629,
 -0.00152217,-0.00802771,0.00113524,-0.00043930,-0.01277491,0.00302374,
 -0.00055215,0.32801423,0.00036766,0.00079766,0.00010578,0.02226136,-0.
 00379790,0.00050687,-0.00049539,-0.00176303,-0.00104126,-0.00025045,0.
 00067693,-0.00075211,-0.00011974,0.00017350,-0.00007940,-0.00008312,-0
 .00010857,-0.00001601,0.00003712,0.00002650,0.00001227,0.00010113,0.00
 006846,-0.00003303,-0.00010255,-0.00010417,-0.00000644,0.00004285,0.00
 008618,-0.00001004,0.00001079,0.00007288,-0.00006753,-0.00027351,0.000
 30798,0.00000525,-0.00046187,-0.00048093,-0.00010265,0.00038224,0.0000
 8270,0.00008833,0.00004174,-0.00025532,-0.00030615,0.00001182,-0.00006
 403,-0.00011508,0.00007782,-0.00005519,-0.00002215,-0.00000419,0.00001
 186,0.00003566,0.00001630,-0.00000776,0.00001053,0.00000060,-0.0000028
 3,0.00000284,-0.00000447,0.00000160,0.00000070,-0.00001567,-0.00002826
 ,0.00002498,0.00001286,0.00000064,0.00000784,0.04434432,-0.05564374,-0
 .00020898,0.01107463,-0.00264493,-0.00001289,-0.02687927,0.00645686,-0
 .00083914,-0.05009300,0.05619291,0.00005825,0.00112273,0.00028776,0.02
 598120,-0.00471532,-0.00239706,-0.00001284,-0.00263798,-0.00118241,-0.
 00104171,0.00072637,-0.00151160,-0.00017129,0.00030854,0.00011078,-0.0
 0006402,-0.00008018,0.00000015,0.00003314,0.00002517,0.00000855,0.0001
 0804,0.00006685,-0.00003732,-0.00009835,-0.00010948,-0.00000935,0.0000
 4276,0.00008555,-0.00001076,-0.00010133,0.00003659,0.00001340,-0.00013
 812,0.00024962,-0.00009247,-0.00045120,-0.00016073,0.00016814,0.000880
 79,-0.00049354,0.00058843,0.00008752,-0.00027079,-0.00035519,0.0000704
 4,-0.00016884,-0.00022832,0.00002966,-0.00001229,-0.00002045,-0.000006
 74,0.00001572,0.00004532,0.00001529,-0.00000778,0.00000863,-0.00000174
 ,-0.00000162,0.00000229,-0.00000364,-0.00000128,0.00000005,-0.00001959
 ,-0.00003254,0.00003465,0.00001386,0.00000105,0.00000872,-0.00029143,0
 .00010776,-0.04164722,-0.02979088,0.00474957,0.00017742,0.00575250,-0.
 00161494,-0.00118303,-0.00088055,0.00281182,0.04722086\\-0.00001007,0.
 00000217,-0.00000202,0.00000056,-0.00000935,-0.00000254,-0.00000146,0.
 00000085,-0.00001085,0.00001460,0.00001011,0.00003130,-0.00000460,0.00
 002205,0.00003459,0.00000783,0.00001582,-0.00000223,-0.00000697,-0.000
 00911,0.00002172,0.00000936,-0.00002701,-0.00001386,-0.00000156,-0.000
 00535,0.00000417,0.00000153,0.00002543,-0.00000876,0.00000085,-0.00000
 125,0.00000292,0.00000136,0.00000359,0.00000557,0.00000585,-0.00000248
 ,0.00000096,-0.00000956,-0.00000790,-0.00000111,-0.00000591,-0.0000056
 6,-0.00000827,0.00000801,0.00000728,-0.00001346,-0.00000384,-0.0000005
 7,0.00000086,0.00000440,-0.00002022,-0.00001310,-0.00000307,-0.0000047
 0,-0.00000720,-0.00000020,-0.00000369,-0.00000693,0.00000444,0.0000018
 2,0.00000091,-0.00001125,-0.00000151,-0.00000727,-0.00000264,0.0000051
 6,0.00000122,0.00000086,0.00000339,-0.00000323,-0.00000107,0.00000447,
 0.00000006,-0.00000338,-0.00000019,0.00000011,0.00000590,-0.00000314,-
 0.00000356\\\@
 The archive entry for this job was punched.


 You never know when you're making a memory.
                        -- Rickie Lee Jones
 Job cpu time:       0 days  2 hours 31 minutes  7.6 seconds.
 Elapsed time:       0 days  0 hours 18 minutes 53.7 seconds.
 File lengths (MBytes):  RWF=    306 Int=      0 D2E=      0 Chk=     22 Scr=      1
 Normal termination of Gaussian 16 at Thu Jun 29 14:25:19 2023.
